# vtk DataFile Version 3.0
Unstructured Grid from OpenGeoSys
ASCII
DATASET UNSTRUCTURED_GRID
FIELD TimesAndCycles 2
TIME 1 1 double
6.643884750301e+01
CYLCE 1 1 long
30
POINTS 1849 double
0.000000000000e+00 1.400000000000e-01 0.000000000000e+00
0.000000000000e+00 1.366670000000e-01 0.000000000000e+00
3.333330000000e-03 1.366670000000e-01 0.000000000000e+00
3.333330000000e-03 1.400000000000e-01 0.000000000000e+00
0.000000000000e+00 1.333330000000e-01 0.000000000000e+00
3.333330000000e-03 1.333330000000e-01 0.000000000000e+00
0.000000000000e+00 1.300000000000e-01 0.000000000000e+00
3.333330000000e-03 1.300000000000e-01 0.000000000000e+00
0.000000000000e+00 1.266670000000e-01 0.000000000000e+00
3.333330000000e-03 1.266670000000e-01 0.000000000000e+00
0.000000000000e+00 1.233330000000e-01 0.000000000000e+00
3.333330000000e-03 1.233330000000e-01 0.000000000000e+00
0.000000000000e+00 1.200000000000e-01 0.000000000000e+00
3.333330000000e-03 1.200000000000e-01 0.000000000000e+00
0.000000000000e+00 1.166670000000e-01 0.000000000000e+00
3.333330000000e-03 1.166670000000e-01 0.000000000000e+00
0.000000000000e+00 1.133330000000e-01 0.000000000000e+00
3.333330000000e-03 1.133330000000e-01 0.000000000000e+00
0.000000000000e+00 1.100000000000e-01 0.000000000000e+00
3.333330000000e-03 1.100000000000e-01 0.000000000000e+00
0.000000000000e+00 1.066670000000e-01 0.000000000000e+00
3.333330000000e-03 1.066670000000e-01 0.000000000000e+00
0.000000000000e+00 1.033330000000e-01 0.000000000000e+00
3.333330000000e-03 1.033330000000e-01 0.000000000000e+00
0.000000000000e+00 1.000000000000e-01 0.000000000000e+00
3.333330000000e-03 1.000000000000e-01 0.000000000000e+00
0.000000000000e+00 9.666670000000e-02 0.000000000000e+00
3.333330000000e-03 9.666670000000e-02 0.000000000000e+00
0.000000000000e+00 9.333330000000e-02 0.000000000000e+00
3.333330000000e-03 9.333330000000e-02 0.000000000000e+00
0.000000000000e+00 9.000000000000e-02 0.000000000000e+00
3.333330000000e-03 9.000000000000e-02 0.000000000000e+00
0.000000000000e+00 8.666670000000e-02 0.000000000000e+00
3.333330000000e-03 8.666670000000e-02 0.000000000000e+00
0.000000000000e+00 8.333330000000e-02 0.000000000000e+00
3.333330000000e-03 8.333330000000e-02 0.000000000000e+00
0.000000000000e+00 8.000000000000e-02 0.000000000000e+00
3.333330000000e-03 8.000000000000e-02 0.000000000000e+00
0.000000000000e+00 7.666670000000e-02 0.000000000000e+00
3.333330000000e-03 7.666670000000e-02 0.000000000000e+00
0.000000000000e+00 7.333330000000e-02 0.000000000000e+00
3.333330000000e-03 7.333330000000e-02 0.000000000000e+00
0.000000000000e+00 7.000000000000e-02 0.000000000000e+00
3.333330000000e-03 7.000000000000e-02 0.000000000000e+00
0.000000000000e+00 6.666670000000e-02 0.000000000000e+00
3.333330000000e-03 6.666670000000e-02 0.000000000000e+00
0.000000000000e+00 6.333330000000e-02 0.000000000000e+00
3.333330000000e-03 6.333330000000e-02 0.000000000000e+00
0.000000000000e+00 6.000000000000e-02 0.000000000000e+00
3.333330000000e-03 6.000000000000e-02 0.000000000000e+00
0.000000000000e+00 5.666670000000e-02 0.000000000000e+00
3.333330000000e-03 5.666670000000e-02 0.000000000000e+00
0.000000000000e+00 5.333330000000e-02 0.000000000000e+00
3.333330000000e-03 5.333330000000e-02 0.000000000000e+00
0.000000000000e+00 5.000000000000e-02 0.000000000000e+00
3.333330000000e-03 5.000000000000e-02 0.000000000000e+00
0.000000000000e+00 4.666670000000e-02 0.000000000000e+00
3.333330000000e-03 4.666670000000e-02 0.000000000000e+00
0.000000000000e+00 4.333330000000e-02 0.000000000000e+00
3.333330000000e-03 4.333330000000e-02 0.000000000000e+00
0.000000000000e+00 4.000000000000e-02 0.000000000000e+00
3.333330000000e-03 4.000000000000e-02 0.000000000000e+00
0.000000000000e+00 3.666670000000e-02 0.000000000000e+00
3.333330000000e-03 3.666670000000e-02 0.000000000000e+00
0.000000000000e+00 3.333330000000e-02 0.000000000000e+00
3.333330000000e-03 3.333330000000e-02 0.000000000000e+00
0.000000000000e+00 3.000000000000e-02 0.000000000000e+00
3.333330000000e-03 3.000000000000e-02 0.000000000000e+00
0.000000000000e+00 2.666670000000e-02 0.000000000000e+00
3.333330000000e-03 2.666670000000e-02 0.000000000000e+00
0.000000000000e+00 2.333330000000e-02 0.000000000000e+00
3.333330000000e-03 2.333330000000e-02 0.000000000000e+00
0.000000000000e+00 2.000000000000e-02 0.000000000000e+00
3.333330000000e-03 2.000000000000e-02 0.000000000000e+00
0.000000000000e+00 1.666670000000e-02 0.000000000000e+00
3.333330000000e-03 1.666670000000e-02 0.000000000000e+00
0.000000000000e+00 1.333330000000e-02 0.000000000000e+00
3.333330000000e-03 1.333330000000e-02 0.000000000000e+00
0.000000000000e+00 1.000000000000e-02 0.000000000000e+00
3.333330000000e-03 1.000000000000e-02 0.000000000000e+00
0.000000000000e+00 6.666670000000e-03 0.000000000000e+00
3.333330000000e-03 6.666670000000e-03 0.000000000000e+00
0.000000000000e+00 3.333330000000e-03 0.000000000000e+00
3.333330000000e-03 3.333330000000e-03 0.000000000000e+00
0.000000000000e+00 7.771560000000e-18 0.000000000000e+00
3.333330000000e-03 7.771560000000e-18 0.000000000000e+00
6.666670000000e-03 1.366670000000e-01 0.000000000000e+00
6.666670000000e-03 1.400000000000e-01 0.000000000000e+00
6.666670000000e-03 1.333330000000e-01 0.000000000000e+00
6.666670000000e-03 1.300000000000e-01 0.000000000000e+00
6.666670000000e-03 1.266670000000e-01 0.000000000000e+00
6.666670000000e-03 1.233330000000e-01 0.000000000000e+00
6.666670000000e-03 1.200000000000e-01 0.000000000000e+00
6.666670000000e-03 1.166670000000e-01 0.000000000000e+00
6.666670000000e-03 1.133330000000e-01 0.000000000000e+00
6.666670000000e-03 1.100000000000e-01 0.000000000000e+00
6.666670000000e-03 1.066670000000e-01 0.000000000000e+00
6.666670000000e-03 1.033330000000e-01 0.000000000000e+00
6.666670000000e-03 1.000000000000e-01 0.000000000000e+00
6.666670000000e-03 9.666670000000e-02 0.000000000000e+00
6.666670000000e-03 9.333330000000e-02 0.000000000000e+00
6.666670000000e-03 9.000000000000e-02 0.000000000000e+00
6.666670000000e-03 8.666670000000e-02 0.000000000000e+00
6.666670000000e-03 8.333330000000e-02 0.000000000000e+00
6.666670000000e-03 8.000000000000e-02 0.000000000000e+00
6.666670000000e-03 7.666670000000e-02 0.000000000000e+00
6.666670000000e-03 7.333330000000e-02 0.000000000000e+00
6.666670000000e-03 7.000000000000e-02 0.000000000000e+00
6.666670000000e-03 6.666670000000e-02 0.000000000000e+00
6.666670000000e-03 6.333330000000e-02 0.000000000000e+00
6.666670000000e-03 6.000000000000e-02 0.000000000000e+00
6.666670000000e-03 5.666670000000e-02 0.000000000000e+00
6.666670000000e-03 5.333330000000e-02 0.000000000000e+00
6.666670000000e-03 5.000000000000e-02 0.000000000000e+00
6.666670000000e-03 4.666670000000e-02 0.000000000000e+00
6.666670000000e-03 4.333330000000e-02 0.000000000000e+00
6.666670000000e-03 4.000000000000e-02 0.000000000000e+00
6.666670000000e-03 3.666670000000e-02 0.000000000000e+00
6.666670000000e-03 3.333330000000e-02 0.000000000000e+00
6.666670000000e-03 3.000000000000e-02 0.000000000000e+00
6.666670000000e-03 2.666670000000e-02 0.000000000000e+00
6.666670000000e-03 2.333330000000e-02 0.000000000000e+00
6.666670000000e-03 2.000000000000e-02 0.000000000000e+00
6.666670000000e-03 1.666670000000e-02 0.000000000000e+00
6.666670000000e-03 1.333330000000e-02 0.000000000000e+00
6.666670000000e-03 1.000000000000e-02 0.000000000000e+00
6.666670000000e-03 6.666670000000e-03 0.000000000000e+00
6.666670000000e-03 3.333330000000e-03 0.000000000000e+00
6.666670000000e-03 7.771560000000e-18 0.000000000000e+00
1.000000000000e-02 1.366670000000e-01 0.000000000000e+00
1.000000000000e-02 1.400000000000e-01 0.000000000000e+00
1.000000000000e-02 1.333330000000e-01 0.000000000000e+00
1.000000000000e-02 1.300000000000e-01 0.000000000000e+00
1.000000000000e-02 1.266670000000e-01 0.000000000000e+00
1.000000000000e-02 1.233330000000e-01 0.000000000000e+00
1.000000000000e-02 1.200000000000e-01 0.000000000000e+00
1.000000000000e-02 1.166670000000e-01 0.000000000000e+00
1.000000000000e-02 1.133330000000e-01 0.000000000000e+00
1.000000000000e-02 1.100000000000e-01 0.000000000000e+00
1.000000000000e-02 1.066670000000e-01 0.000000000000e+00
1.000000000000e-02 1.033330000000e-01 0.000000000000e+00
1.000000000000e-02 1.000000000000e-01 0.000000000000e+00
1.000000000000e-02 9.666670000000e-02 0.000000000000e+00
1.000000000000e-02 9.333330000000e-02 0.000000000000e+00
1.000000000000e-02 9.000000000000e-02 0.000000000000e+00
1.000000000000e-02 8.666670000000e-02 0.000000000000e+00
1.000000000000e-02 8.333330000000e-02 0.000000000000e+00
1.000000000000e-02 8.000000000000e-02 0.000000000000e+00
1.000000000000e-02 7.666670000000e-02 0.000000000000e+00
1.000000000000e-02 7.333330000000e-02 0.000000000000e+00
1.000000000000e-02 7.000000000000e-02 0.000000000000e+00
1.000000000000e-02 6.666670000000e-02 0.000000000000e+00
1.000000000000e-02 6.333330000000e-02 0.000000000000e+00
1.000000000000e-02 6.000000000000e-02 0.000000000000e+00
1.000000000000e-02 5.666670000000e-02 0.000000000000e+00
1.000000000000e-02 5.333330000000e-02 0.000000000000e+00
1.000000000000e-02 5.000000000000e-02 0.000000000000e+00
1.000000000000e-02 4.666670000000e-02 0.000000000000e+00
1.000000000000e-02 4.333330000000e-02 0.000000000000e+00
1.000000000000e-02 4.000000000000e-02 0.000000000000e+00
1.000000000000e-02 3.666670000000e-02 0.000000000000e+00
1.000000000000e-02 3.333330000000e-02 0.000000000000e+00
1.000000000000e-02 3.000000000000e-02 0.000000000000e+00
1.000000000000e-02 2.666670000000e-02 0.000000000000e+00
1.000000000000e-02 2.333330000000e-02 0.000000000000e+00
1.000000000000e-02 2.000000000000e-02 0.000000000000e+00
1.000000000000e-02 1.666670000000e-02 0.000000000000e+00
1.000000000000e-02 1.333330000000e-02 0.000000000000e+00
1.000000000000e-02 1.000000000000e-02 0.000000000000e+00
1.000000000000e-02 6.666670000000e-03 0.000000000000e+00
1.000000000000e-02 3.333330000000e-03 0.000000000000e+00
1.000000000000e-02 7.771560000000e-18 0.000000000000e+00
[...]
POINT_DATA 1849
SCALARS HEAD double 1
LOOKUP_TABLE default
1.000242394679e+01
1.000242508083e+01
1.000242391383e+01
1.000242287802e+01
1.000242870549e+01
1.000242720679e+01
1.000243556889e+01
1.000243337458e+01
1.000244745721e+01
1.000244361144e+01
1.000246767710e+01
1.000246122827e+01
1.000252660742e+01
1.000247882244e+01
1.000254094278e+01
1.000249063247e+01
1.000254092738e+01
1.000248912964e+01
1.000252949115e+01
1.000247731106e+01
1.000250767367e+01
1.000245578041e+01
1.000247461323e+01
1.000242411674e+01
1.000242757715e+01
1.000237952605e+01
1.000233646354e+01
1.000232968486e+01
1.000228471427e+01
1.000228049482e+01
1.000224201834e+01
1.000223943874e+01
1.000220509193e+01
1.000220323653e+01
1.000217208213e+01
1.000217064070e+01
1.000214206204e+01
1.000214087578e+01
1.000211447170e+01
1.000211345447e+01
1.000208894927e+01
1.000208804975e+01
1.000206524805e+01
1.000206443408e+01
1.000204318887e+01
1.000204243923e+01
1.000202263810e+01
1.000202193832e+01
1.000200349411e+01
1.000200283421e+01
1.000198567518e+01
1.000198504748e+01
1.000196911476e+01
1.000196851395e+01
1.000195375909e+01
1.000195318099e+01
1.000193956168e+01
1.000193900304e+01
1.000192648281e+01
1.000192594094e+01
1.000191448932e+01
1.000191396216e+01
1.000190355130e+01
1.000190303694e+01
1.000189364268e+01
1.000189313955e+01
1.000188474135e+01
1.000188424810e+01
1.000187682725e+01
1.000187634263e+01
1.000186988293e+01
1.000186940571e+01
1.000186389392e+01
1.000186342302e+01
1.000185884726e+01
1.000185838166e+01
1.000185473228e+01
1.000185427095e+01
1.000185154065e+01
1.000185108261e+01
1.000184926558e+01
1.000184880978e+01
1.000184790233e+01
1.000184744803e+01
1.000184744825e+01
1.000184699439e+01
1.000242061837e+01
1.000241985011e+01
1.000242302678e+01
1.000242736253e+01
1.000243405513e+01
1.000244218219e+01
1.000244939901e+01
1.000245191709e+01
1.000244731443e+01
1.000243450329e+01
1.000241367379e+01
1.000238483299e+01
1.000234928695e+01
1.000230962374e+01
1.000226978790e+01
1.000223223159e+01
1.000219793426e+01
1.000216645144e+01
1.000213739427e+01
1.000211044948e+01
1.000208538107e+01
1.000206201199e+01
1.000204020402e+01
1.000201984883e+01
1.000200086112e+01
1.000198316985e+01
1.000196671566e+01
1.000195144992e+01
1.000193732962e+01
1.000192431762e+01
1.000191238239e+01
1.000190149548e+01
1.000189163170e+01
1.000188276967e+01
1.000187488983e+01
1.000186797511e+01
1.000186201136e+01
1.000185698578e+01
1.000185288789e+01
1.000184970939e+01
1.000184744364e+01
1.000184608605e+01
1.000184563381e+01
1.000241575190e+01
1.000241535373e+01
1.000241696768e+01
1.000241901615e+01
1.000242164063e+01
1.000242403266e+01
1.000242466089e+01
1.000242171915e+01
1.000241365577e+01
1.000239965274e+01
1.000237951364e+01
1.000235365511e+01
1.000232313843e+01
1.000228970911e+01
1.000225535853e+01
1.000222176522e+01
1.000218983674e+01
1.000215987022e+01
1.000213182541e+01
1.000210558590e+01
1.000208102704e+01
1.000205803809e+01
1.000203652228e+01
1.000201639739e+01
1.000199759567e+01
1.000198005755e+01
1.000196373163e+01
1.000194857521e+01
1.000193454904e+01
1.000192161887e+01
1.000190975545e+01
1.000189893153e+01
1.000188912315e+01
1.000188030974e+01
1.000187247237e+01
1.000186559441e+01
1.000185966200e+01
1.000185466267e+01
1.000185058597e+01
1.000184742390e+01
1.000184516980e+01
1.000184381918e+01
1.000184336929e+01
1.000241007787e+01
1.000241008310e+01
1.000241003866e+01
1.000240984807e+01
1.000240918981e+01
1.000240744097e+01
1.000240369119e+01
1.000239690761e+01
1.000238620120e+01
1.000237103938e+01
1.000235132475e+01
1.000232740515e+01
1.000230008956e+01
1.000227049763e+01
1.000223988793e+01
1.000220936862e+01
1.000217971648e+01
1.000215135354e+01
1.000212445248e+01
1.000209904610e+01
1.000207510913e+01
1.000205259613e+01
1.000203145309e+01
1.000201162691e+01
1.000199306925e+01
1.000197573443e+01
1.000195958064e+01
1.000194457163e+01
1.000193067336e+01
1.000191785495e+01
1.000190608981e+01
1.000189535254e+01
1.000188562060e+01
1.000187687446e+01
1.000186909594e+01
1.000186226897e+01
1.000185638010e+01
1.000185141728e+01
1.000184737015e+01
1.000184423089e+01
1.000184199310e+01
1.000184065217e+01
1.000184020549e+01
1.000240441777e+01
1.000240481514e+01
1.000240319448e+01
1.000240103476e+01
1.000239770182e+01
1.000239280140e+01
1.000238580986e+01
1.000237615701e+01
1.000236335479e+01
1.000234713148e+01
1.000232748145e+01
1.000230469595e+01
1.000227936234e+01
1.000225224383e+01
1.000222418696e+01
1.000219597487e+01
1.000216822089e+01
1.000214133842e+01
1.000211556908e+01
1.000209103025e+01
1.000206776652e+01
1.000204578442e+01
1.000202506761e+01
1.000200558965e+01
1.000198732150e+01
1.000197023088e+01
1.000195428622e+01
1.000193945822e+01
1.000192571807e+01
1.000191303894e+01
1.000190139674e+01
1.000189076851e+01
1.000188113306e+01
1.000187247204e+01
1.000186476818e+01
1.000185800605e+01
1.000185217267e+01
1.000184725623e+01
1.000184324690e+01
1.000184013693e+01
1.000183791979e+01
1.000183659133e+01
1.000183614879e+01
1.000239956010e+01
1.000240032745e+01
1.000239724479e+01
1.000239333551e+01
1.000238772631e+01
1.000238023464e+01
1.000237062235e+01
1.000235862690e+01
1.000234403280e+01
1.000232675578e+01
1.000230686588e+01
1.000228461522e+01
1.000226044641e+01
1.000223490058e+01
1.000220857756e+01
1.000218204857e+01
1.000215579307e+01
1.000213017220e+01
1.000210543327e+01
1.000208172702e+01
1.000205913710e+01
1.000203770469e+01
1.000201744168e+01
1.000199834310e+01
1.000198039645e+01
1.000196358169e+01
1.000194787621e+01
1.000193325771e+01
1.000191970235e+01
1.000190718697e+01
1.000189569058e+01
1.000188519208e+01
1.000187567204e+01
1.000186711316e+01
1.000185949916e+01
1.000185281520e+01
1.000184704884e+01
1.000184218864e+01
1.000183822498e+01
1.000183515034e+01
1.000183295854e+01
1.000183164515e+01
1.000183120764e+01
1.000239624000e+01
1.000239736962e+01
1.000239286953e+01
1.000238730842e+01
1.000237960530e+01
1.000236978207e+01
1.000235783502e+01
1.000234373317e+01
1.000232745737e+01
1.000230905919e+01
1.000228866476e+01
1.000226650315e+01
1.000224292261e+01
1.000221832189e+01
1.000219314065e+01
1.000216780535e+01
1.000214268913e+01
1.000211809308e+01
1.000209424288e+01
1.000207129292e+01
1.000204934212e+01
1.000202845053e+01
1.000200864748e+01
1.000198994379e+01
1.000197233872e+01
1.000195582237e+01
1.000194037965e+01
1.000192599420e+01
1.000191264655e+01
1.000190031692e+01
1.000188898691e+01
1.000187863743e+01
1.000186925048e+01
1.000186081001e+01
1.000185330033e+01
1.000184670746e+01
1.000184101932e+01
1.000183622480e+01
1.000183231470e+01
1.000182928154e+01
1.000182711921e+01
1.000182582354e+01
1.000182539196e+01
1.000239517140e+01
1.000239668780e+01
1.000239068648e+01
1.000238341273e+01
1.000237358692e+01
1.000236144678e+01
1.000234720686e+01
1.000233102770e+01
1.000231304077e+01
1.000229339633e+01
1.000227225941e+01
1.000224984198e+01
1.000222642746e+01
1.000220231678e+01
1.000217783914e+01
1.000215331610e+01
1.000212903684e+01
1.000210524460e+01
1.000208213348e+01
1.000205984533e+01
1.000203847913e+01
1.000201810103e+01
1.000199874926e+01
1.000198044320e+01
1.000196319047e+01
1.000194698778e+01
1.000193182574e+01
1.000191769242e+01
1.000190457205e+01
1.000189244758e+01
1.000188130276e+01
1.000187112012e+01
1.000186188291e+01
1.000185357613e+01
1.000184618481e+01
1.000183969539e+01
1.000183409637e+01
1.000182937692e+01
1.000182552785e+01
1.000182254209e+01
1.000182041360e+01
1.000181913817e+01
1.000181871328e+01
1.000239711194e+01
1.000239908936e+01
1.000239131452e+01
1.000238206836e+01
1.000236986421e+01
1.000235519765e+01
1.000233850826e+01
1.000232012622e+01
1.000230029923e+01
1.000227924467e+01
1.000225714747e+01
1.000223419960e+01
1.000221063308e+01
1.000218667549e+01
1.000216257303e+01
1.000213856737e+01
1.000211487884e+01
1.000209169905e+01
1.000206918687e+01
1.000204746412e+01
1.000202662041e+01
1.000200671928e+01
1.000198780067e+01
1.000196988718e+01
1.000195299046e+01
1.000193711099e+01
1.000192224302e+01
1.000190837755e+01
1.000189550124e+01
1.000188359922e+01
1.000187265669e+01
1.000186265744e+01
1.000185358577e+01
1.000184542732e+01
1.000183816778e+01
1.000183179388e+01
1.000182629446e+01
1.000182165910e+01
1.000181787862e+01
1.000181494605e+01
1.000181285554e+01
1.000181160288e+01
1.000181118558e+01
1.000240295631e+01
1.000240554971e+01
1.000239543509e+01
1.000238367970e+01
1.000236856882e+01
1.000235093918e+01
1.000233147359e+01
1.000231064827e+01
1.000228878746e+01
1.000226614027e+01
1.000224288710e+01
1.000221918978e+01
1.000219523120e+01
1.000217117624e+01
1.000214720427e+01
1.000212349098e+01
1.000210019953e+01
1.000207747431e+01
1.000205543983e+01
1.000203419419e+01
1.000201381212e+01
1.000199434951e+01
1.000197584223e+01
1.000195831209e+01
1.000194177098e+01
1.000192622081e+01
1.000191165731e+01
1.000189807289e+01
1.000188545560e+01
1.000187379172e+01
1.000186306734e+01
1.000185326716e+01
1.000184437599e+01
1.000183637999e+01
1.000182926513e+01
1.000182301861e+01
1.000181762920e+01
1.000181308669e+01
1.000180938210e+01
1.000180650854e+01
1.000180446015e+01
1.000180323275e+01
1.000180282386e+01
1.000241388599e+01
1.000241740394e+01
1.000240385483e+01
1.000238861740e+01
1.000236971687e+01
1.000234845193e+01
1.000232574854e+01
1.000230216880e+01
1.000227805366e+01
1.000225363734e+01
1.000222906458e+01
1.000220445069e+01
1.000217992459e+01
1.000215559211e+01
1.000213157278e+01
1.000210798619e+01
1.000208494466e+01
1.000206255078e+01
1.000204089554e+01
1.000202005233e+01
1.000200007882e+01
1.000198101914e+01
1.000196290214e+01
1.000194574519e+01
1.000192955815e+01
1.000191434184e+01
1.000190009165e+01
1.000188680007e+01
1.000187445557e+01
1.000186304459e+01
1.000185255356e+01
1.000184296752e+01
1.000183427137e+01
1.000182645153e+01
1.000181949416e+01
1.000181338641e+01
1.000180811728e+01
1.000180367638e+01
1.000180005499e+01
1.000179724614e+01
1.000179524395e+01
1.000179404427e+01
1.000179364457e+01
1.000243164638e+01
1.000243670761e+01
1.000241752481e+01
1.000239710200e+01
1.000237305881e+01
1.000234729831e+01
1.000232083091e+01
1.000229417830e+01
1.000226760877e+01
1.000224128313e+01
1.000221527486e+01
1.000218963280e+01
1.000216442398e+01
1.000213969447e+01
1.000211550805e+01
1.000209193318e+01
1.000206903729e+01
1.000204688426e+01
1.000202553405e+01
1.000200503571e+01
1.000198542836e+01
1.000196674284e+01
1.000194899864e+01
1.000193220691e+01
1.000191637310e+01
1.000190149531e+01
1.000188756719e+01
1.000187458004e+01
1.000186252163e+01
1.000185137796e+01
1.000184113519e+01
1.000183177799e+01
1.000182329137e+01
1.000181566129e+01
1.000180887397e+01
1.000180291647e+01
1.000179777769e+01
1.000179344724e+01
1.000178991631e+01
1.000178717785e+01
1.000178522595e+01
1.000178405641e+01
1.000178366684e+01
1.000245891932e+01
1.000246735869e+01
1.000243750362e+01
1.000240868223e+01
1.000237785920e+01
1.000234671957e+01
1.000231602384e+01
1.000228605802e+01
1.000225690979e+01
1.000222860494e+01
1.000220111073e+01
1.000217439139e+01
1.000214844435e+01
1.000212325459e+01
1.000209883273e+01
1.000207520039e+01
1.000205238388e+01
1.000203041267e+01
1.000200931742e+01
1.000198912403e+01
1.000196985337e+01
1.000195152222e+01
1.000193413982e+01
1.000191770920e+01
1.000190223043e+01
1.000188769757e+01
1.000187410122e+01
1.000186143070e+01
1.000184967232e+01
1.000183881079e+01
1.000182883126e+01
1.000181971788e+01
1.000181145515e+01
1.000180402864e+01
1.000179742406e+01
1.000179162844e+01
1.000178663029e+01
1.000178241910e+01
1.000177898591e+01
1.000177632352e+01
1.000177442590e+01
1.000177328912e+01
1.000177291041e+01
1.000250246079e+01
1.000251612528e+01
1.000246201355e+01
1.000242170256e+01
1.000238269548e+01
1.000234558703e+01
1.000231043074e+01
1.000227708679e+01
1.000224536770e+01
1.000221511565e+01
1.000218616704e+01
1.000215839021e+01
1.000213170938e+01
1.000210604921e+01
1.000208137048e+01
1.000205765205e+01
1.000203488377e+01
1.000201306368e+01
1.000199219648e+01
1.000197228638e+01
1.000195333687e+01
1.000193535068e+01
1.000191832611e+01
1.000190225818e+01
1.000188714023e+01
1.000187296144e+01
1.000185970885e+01
1.000184736879e+01
1.000183592512e+01
1.000182536121e+01
1.000181566080e+01
1.000180680682e+01
1.000179878298e+01
1.000179157396e+01
1.000178516518e+01
1.000177954312e+01
1.000177469596e+01
1.000177061298e+01
1.000176728494e+01
1.000176470443e+01
1.000176286546e+01
1.000176176385e+01
1.000176139688e+01
1.000254752537e+01
1.000264385057e+01
1.000248635590e+01
1.000243299310e+01
1.000238551501e+01
1.000234247100e+01
1.000230301445e+01
1.000226648441e+01
1.000223237711e+01
1.000220033373e+01
1.000217005420e+01
1.000214131136e+01
1.000211395952e+01
1.000208786820e+01
1.000206295345e+01
1.000203915697e+01
1.000201643656e+01
1.000199476325e+01
1.000197411865e+01
1.000195448737e+01
1.000193585701e+01
1.000191821692e+01
1.000190155478e+01
1.000188585709e+01
1.000187111043e+01
1.000185729862e+01
1.000184440430e+01
1.000183241046e+01
1.000182129837e+01
1.000181104893e+01
1.000180164443e+01
1.000179306623e+01
1.000178529670e+01
1.000177831993e+01
1.000177212034e+01
1.000176668383e+01
1.000176199834e+01
1.000175805272e+01
1.000175483736e+01
1.000175234470e+01
1.000175056864e+01
1.000174950471e+01
1.000174915041e+01
1.000258254591e+01
1.000268390346e+01
1.000250287530e+01
1.000243878743e+01
1.000238399567e+01
1.000233584856e+01
1.000229271915e+01
1.000225348604e+01
1.000221736202e+01
1.000218381069e+01
1.000215241411e+01
1.000212286438e+01
1.000209495755e+01
1.000206851783e+01
1.000204342502e+01
1.000201958992e+01
1.000199694431e+01
1.000197543634e+01
1.000195502805e+01
1.000193568733e+01
1.000191738705e+01
1.000190010475e+01
1.000188381801e+01
1.000186850497e+01
1.000185414552e+01
1.000184071765e+01
1.000182819960e+01
1.000181657050e+01
1.000180580865e+01
1.000179589252e+01
1.000178680195e+01
1.000177851701e+01
1.000177101841e+01
1.000176428913e+01
1.000175831272e+01
1.000175307445e+01
1.000174856161e+01
1.000174476258e+01
1.000174166768e+01
1.000173926901e+01
1.000173756016e+01
1.000173653675e+01
1.000173619590e+01
1.000259241509e+01
1.000269672207e+01
1.000250663344e+01
1.000243581902e+01
1.000237610523e+01
1.000232438095e+01
1.000227862825e+01
1.000223743572e+01
1.000219983232e+01
1.000216516617e+01
1.000213294255e+01
1.000210280100e+01
1.000207449886e+01
1.000204782926e+01
1.000202264628e+01
1.000199883821e+01
1.000197631672e+01
1.000195501228e+01
1.000193487092e+01
1.000191584641e+01
1.000189789944e+01
1.000188099666e+01
1.000186510650e+01
1.000185019939e+01
1.000183624845e+01
1.000182322602e+01
1.000181110583e+01
1.000179986304e+01
1.000178947267e+01
1.000177991049e+01
1.000177115408e+01
1.000176318119e+01
1.000175597126e+01
1.000174950565e+01
1.000174376711e+01
1.000173874002e+01
1.000173441113e+01
1.000173076854e+01
1.000172780212e+01
1.000172550373e+01
1.000172386674e+01
1.000172288646e+01
1.000172256003e+01
1.000258307292e+01
1.000268812403e+01
1.000249535131e+01
1.000242227849e+01
1.000236051799e+01
1.000230716648e+01
1.000226011240e+01
1.000221787475e+01
1.000217943728e+01
1.000214412033e+01
1.000211140959e+01
1.000208092846e+01
1.000205242058e+01
1.000202566501e+01
1.000200050209e+01
1.000197680641e+01
1.000195447633e+01
1.000193342949e+01
1.000191359967e+01
1.000189492959e+01
1.000187736948e+01
1.000186087724e+01
1.000184541256e+01
1.000183093911e+01
1.000181742340e+01
1.000180483260e+01
1.000179313567e+01
1.000178230397e+01
1.000177230912e+01
1.000176312395e+01
1.000175472345e+01
1.000174708339e+01
1.000174018092e+01
1.000173399629e+01
1.000172851096e+01
1.000172370862e+01
1.000171957551e+01
1.000171609937e+01
1.000171326974e+01
1.000171107822e+01
1.000170951775e+01
1.000170858354e+01
1.000170827244e+01
1.000255569915e+01
1.000266020738e+01
1.000246933812e+01
1.000239763510e+01
1.000233682035e+01
1.000228388905e+01
1.000223692418e+01
1.000219459647e+01
1.000215599561e+01
1.000212051019e+01
1.000208766685e+01
1.000205711264e+01
1.000202860233e+01
1.000200191846e+01
1.000197689949e+01
1.000195341512e+01
1.000193135661e+01
1.000191063359e+01
1.000189117140e+01
1.000187290399e+01
1.000185577400e+01
1.000183973098e+01
1.000182472821e+01
1.000181072224e+01
1.000179767391e+01
1.000178554534e+01
1.000177430114e+01
1.000176390852e+01
1.000175433608e+01
1.000174555362e+01
1.000173753337e+01
1.000173024835e+01
1.000172367395e+01
1.000171778855e+01
1.000171257248e+01
1.000170800899e+01
1.000170408373e+01
1.000170078427e+01
1.000169810018e+01
1.000169602223e+01
1.000169454346e+01
1.000169365832e+01
1.000169336368e+01
1.000250950654e+01
1.000261129354e+01
1.000242860284e+01
1.000236263373e+01
1.000230552707e+01
1.000225486244e+01
1.000220922461e+01
1.000216766066e+01
1.000212950318e+01
1.000209429257e+01
1.000206165046e+01
1.000203127906e+01
1.000200296745e+01
1.000197651543e+01
1.000195176983e+01
1.000192860294e+01
1.000190690444e+01
1.000188658011e+01
1.000186754979e+01
1.000184974201e+01
1.000183309225e+01
1.000181754499e+01
1.000180304655e+01
1.000178954825e+01
1.000177700496e+01
1.000176537384e+01
1.000175461525e+01
1.000174469319e+01
1.000173557295e+01
1.000172722158e+01
1.000171960822e+01
1.000171270301e+01
1.000170647875e+01
1.000170091187e+01
1.000169598203e+01
1.000169167164e+01
1.000168796648e+01
1.000168485439e+01
1.000168232449e+01
1.000168036779e+01
1.000167897585e+01
1.000167814316e+01
1.000167786596e+01
1.000243900191e+01
1.000253604718e+01
1.000237577710e+01
1.000231930806e+01
1.000226805707e+01
1.000222096620e+01
1.000217753589e+01
1.000213736084e+01
1.000210011078e+01
1.000206553292e+01
1.000203337159e+01
1.000200341104e+01
1.000197548145e+01
1.000194941369e+01
1.000192506953e+01
1.000190232818e+01
1.000188108252e+01
1.000186123705e+01
1.000184270954e+01
1.000182542371e+01
1.000180931230e+01
1.000179431253e+01
1.000178036717e+01
1.000176742110e+01
1.000175542525e+01
1.000174433117e+01
1.000173409473e+01
1.000172467717e+01
1.000171604180e+01
1.000170815308e+01
1.000170097654e+01
1.000169447852e+01
1.000168862819e+01
1.000168340059e+01
1.000167877359e+01
1.000167473064e+01
1.000167125762e+01
1.000166834342e+01
1.000166597753e+01
1.000166414973e+01
1.000166285099e+01
1.000166207420e+01
1.000166181560e+01
1.000235985487e+01
1.000237464643e+01
1.000231621320e+01
1.000227115405e+01
1.000222649465e+01
1.000218346380e+01
1.000214260747e+01
1.000210413592e+01
1.000206806980e+01
1.000203436194e+01
1.000200289498e+01
1.000197352352e+01
1.000194613796e+01
1.000192059341e+01
1.000189677097e+01
1.000187456208e+01
1.000185386248e+01
1.000183457973e+01
1.000181662870e+01
1.000179993354e+01
1.000178442103e+01
1.000177002686e+01
1.000175668831e+01
1.000174434689e+01
1.000173294650e+01
1.000172243325e+01
1.000171275796e+01
1.000170388010e+01
1.000169576396e+01
1.000168837305e+01
1.000168166851e+01
1.000167560785e+01
1.000167015727e+01
1.000166528996e+01
1.000166098385e+01
1.000165722093e+01
1.000165399076e+01
1.000165128373e+01
1.000164909318e+01
1.000164740405e+01
1.000164620535e+01
1.000164548791e+01
1.000164524939e+01
1.000228440838e+01
1.000229461581e+01
1.000225808329e+01
1.000222214432e+01
1.000218314004e+01
1.000214368071e+01
1.000210523964e+01
1.000206846629e+01
1.000203366271e+01
1.000200094361e+01
1.000197030454e+01
1.000194165511e+01
1.000191495172e+01
1.000189004847e+01
1.000186685930e+01
1.000184528269e+01
1.000182522599e+01
1.000180658765e+01
1.000178929171e+01
1.000177325650e+01
1.000175840037e+01
1.000174467421e+01
1.000173199966e+01
1.000172032411e+01
1.000170957417e+01
1.000169969243e+01
1.000169062032e+01
1.000168231727e+01
1.000167475296e+01
1.000166790486e+01
1.000166171435e+01
1.000165613162e+01
1.000165110436e+01
1.000164661595e+01
1.000164265207e+01
1.000163918219e+01
1.000163619732e+01
1.000163370994e+01
1.000163170261e+01
1.000163017393e+01
1.000162908028e+01
1.000162842437e+01
1.000162820414e+01
1.000222863274e+01
1.000223651676e+01
1.000220672889e+01
1.000217559645e+01
1.000213978805e+01
1.000210276547e+01
1.000206607998e+01
1.000203074798e+01
1.000199714639e+01
1.000196552613e+01
1.000193565735e+01
1.000190800120e+01
1.000188196084e+01
1.000185781833e+01
1.000183536630e+01
1.000181453523e+01
1.000179519372e+01