# vtk DataFile Version 3.0
Unstructured Grid from OpenGeoSys
ASCII
DATASET UNSTRUCTURED_GRID
FIELD TimesAndCycles 2
TIME 1 1 double
1.100000000000e+04
CYLCE 1 1 long
110
POINTS 101 double
0.000000000000e+00 0.000000000000e+00 0.000000000000e+00
5.000000000000e-03 0.000000000000e+00 0.000000000000e+00
1.000000000000e-02 0.000000000000e+00 0.000000000000e+00
1.500000000000e-02 0.000000000000e+00 0.000000000000e+00
2.000000000000e-02 0.000000000000e+00 0.000000000000e+00
2.500000000000e-02 0.000000000000e+00 0.000000000000e+00
3.000000000000e-02 0.000000000000e+00 0.000000000000e+00
3.500000000000e-02 0.000000000000e+00 0.000000000000e+00
4.000000000000e-02 0.000000000000e+00 0.000000000000e+00
4.500000000000e-02 0.000000000000e+00 0.000000000000e+00
5.000000000000e-02 0.000000000000e+00 0.000000000000e+00
5.500000000000e-02 0.000000000000e+00 0.000000000000e+00
6.000000000000e-02 0.000000000000e+00 0.000000000000e+00
6.500000000000e-02 0.000000000000e+00 0.000000000000e+00
7.000000000000e-02 0.000000000000e+00 0.000000000000e+00
7.500000000000e-02 0.000000000000e+00 0.000000000000e+00
8.000000000000e-02 0.000000000000e+00 0.000000000000e+00
8.500000000000e-02 0.000000000000e+00 0.000000000000e+00
9.000000000000e-02 0.000000000000e+00 0.000000000000e+00
9.500000000000e-02 0.000000000000e+00 0.000000000000e+00
1.000000000000e-01 0.000000000000e+00 0.000000000000e+00
1.050000000000e-01 0.000000000000e+00 0.000000000000e+00
1.100000000000e-01 0.000000000000e+00 0.000000000000e+00
1.150000000000e-01 0.000000000000e+00 0.000000000000e+00
1.200000000000e-01 0.000000000000e+00 0.000000000000e+00
1.250000000000e-01 0.000000000000e+00 0.000000000000e+00
1.300000000000e-01 0.000000000000e+00 0.000000000000e+00
1.350000000000e-01 0.000000000000e+00 0.000000000000e+00
1.400000000000e-01 0.000000000000e+00 0.000000000000e+00
1.450000000000e-01 0.000000000000e+00 0.000000000000e+00
1.500000000000e-01 0.000000000000e+00 0.000000000000e+00
1.550000000000e-01 0.000000000000e+00 0.000000000000e+00
1.600000000000e-01 0.000000000000e+00 0.000000000000e+00
1.650000000000e-01 0.000000000000e+00 0.000000000000e+00
1.700000000000e-01 0.000000000000e+00 0.000000000000e+00
1.750000000000e-01 0.000000000000e+00 0.000000000000e+00
1.800000000000e-01 0.000000000000e+00 0.000000000000e+00
1.850000000000e-01 0.000000000000e+00 0.000000000000e+00
1.900000000000e-01 0.000000000000e+00 0.000000000000e+00
1.950000000000e-01 0.000000000000e+00 0.000000000000e+00
2.000000000000e-01 0.000000000000e+00 0.000000000000e+00
2.050000000000e-01 0.000000000000e+00 0.000000000000e+00
2.100000000000e-01 0.000000000000e+00 0.000000000000e+00
2.150000000000e-01 0.000000000000e+00 0.000000000000e+00
2.200000000000e-01 0.000000000000e+00 0.000000000000e+00
2.250000000000e-01 0.000000000000e+00 0.000000000000e+00
2.300000000000e-01 0.000000000000e+00 0.000000000000e+00
2.350000000000e-01 0.000000000000e+00 0.000000000000e+00
2.400000000000e-01 0.000000000000e+00 0.000000000000e+00
2.450000000000e-01 0.000000000000e+00 0.000000000000e+00
2.500000000000e-01 0.000000000000e+00 0.000000000000e+00
2.550000000000e-01 0.000000000000e+00 0.000000000000e+00
2.600000000000e-01 0.000000000000e+00 0.000000000000e+00
2.650000000000e-01 0.000000000000e+00 0.000000000000e+00
2.700000000000e-01 0.000000000000e+00 0.000000000000e+00
2.750000000000e-01 0.000000000000e+00 0.000000000000e+00
2.800000000000e-01 0.000000000000e+00 0.000000000000e+00
2.850000000000e-01 0.000000000000e+00 0.000000000000e+00
2.900000000000e-01 0.000000000000e+00 0.000000000000e+00
2.950000000000e-01 0.000000000000e+00 0.000000000000e+00
3.000000000000e-01 0.000000000000e+00 0.000000000000e+00
3.050000000000e-01 0.000000000000e+00 0.000000000000e+00
3.100000000000e-01 0.000000000000e+00 0.000000000000e+00
3.150000000000e-01 0.000000000000e+00 0.000000000000e+00
3.200000000000e-01 0.000000000000e+00 0.000000000000e+00
3.250000000000e-01 0.000000000000e+00 0.000000000000e+00
3.300000000000e-01 0.000000000000e+00 0.000000000000e+00
3.350000000000e-01 0.000000000000e+00 0.000000000000e+00
3.400000000000e-01 0.000000000000e+00 0.000000000000e+00
3.450000000000e-01 0.000000000000e+00 0.000000000000e+00
3.500000000000e-01 0.000000000000e+00 0.000000000000e+00
3.550000000000e-01 0.000000000000e+00 0.000000000000e+00
3.600000000000e-01 0.000000000000e+00 0.000000000000e+00
3.650000000000e-01 0.000000000000e+00 0.000000000000e+00
3.700000000000e-01 0.000000000000e+00 0.000000000000e+00
3.750000000000e-01 0.000000000000e+00 0.000000000000e+00
3.800000000000e-01 0.000000000000e+00 0.000000000000e+00
3.850000000000e-01 0.000000000000e+00 0.000000000000e+00
3.900000000000e-01 0.000000000000e+00 0.000000000000e+00
3.950000000000e-01 0.000000000000e+00 0.000000000000e+00
4.000000000000e-01 0.000000000000e+00 0.000000000000e+00
4.050000000000e-01 0.000000000000e+00 0.000000000000e+00
4.100000000000e-01 0.000000000000e+00 0.000000000000e+00
4.150000000000e-01 0.000000000000e+00 0.000000000000e+00
4.200000000000e-01 0.000000000000e+00 0.000000000000e+00
4.250000000000e-01 0.000000000000e+00 0.000000000000e+00
4.300000000000e-01 0.000000000000e+00 0.000000000000e+00
4.350000000000e-01 0.000000000000e+00 0.000000000000e+00
4.400000000000e-01 0.000000000000e+00 0.000000000000e+00
4.450000000000e-01 0.000000000000e+00 0.000000000000e+00
4.500000000000e-01 0.000000000000e+00 0.000000000000e+00
4.550000000000e-01 0.000000000000e+00 0.000000000000e+00
4.600000000000e-01 0.000000000000e+00 0.000000000000e+00
4.650000000000e-01 0.000000000000e+00 0.000000000000e+00
4.700000000000e-01 0.000000000000e+00 0.000000000000e+00
4.750000000000e-01 0.000000000000e+00 0.000000000000e+00
4.800000000000e-01 0.000000000000e+00 0.000000000000e+00
4.850000000000e-01 0.000000000000e+00 0.000000000000e+00
4.900000000000e-01 0.000000000000e+00 0.000000000000e+00
4.950000000000e-01 0.000000000000e+00 0.000000000000e+00
5.000000000000e-01 0.000000000000e+00 0.000000000000e+00
CELLS 100 300
2 0 1
2 2 3
2 4 5
2 6 7
2 8 9
2 10 11
2 12 13
2 14 15
2 16 17
2 18 19
2 20 21
2 22 23
2 24 25
2 26 27
2 28 29
2 30 31
2 32 33
2 34 35
2 36 37
2 38 39
2 40 41
2 42 43
2 44 45
2 46 47
2 48 49
2 50 51
2 52 53
2 54 55
2 56 57
2 58 59
2 60 61
2 62 63
2 64 65
2 66 67
2 68 69
2 70 71
2 72 73
2 74 75
2 76 77
2 78 79
2 80 81
2 82 83
2 84 85
2 86 87
2 88 89
2 90 91
2 92 93
2 94 95
2 96 97
2 98 99
2 1 2
2 3 4
2 5 6
2 7 8
2 9 10
2 11 12
2 13 14
2 15 16
2 17 18
2 19 20
2 21 22
2 23 24
2 25 26
2 27 28
2 29 30
2 31 32
2 33 34
2 35 36
2 37 38
2 39 40
2 41 42
2 43 44
2 45 46
2 47 48
2 49 50
2 51 52
2 53 54
2 55 56
2 57 58
2 59 60
2 61 62
2 63 64
2 65 66
2 67 68
2 69 70
2 71 72
2 73 74
2 75 76
2 77 78
2 79 80
2 81 82
2 83 84
2 85 86
2 87 88
2 89 90
2 91 92
2 93 94
2 95 96
2 97 98
2 99 100

CELL_TYPES 100
3
3
3
3
3
3
3
3
3
3
3
3
3
3
3
3
3
3
3
3
3
3
3
3
3
3
3
3
3
3
3
3
3
3
3
3
3
3
3
3
3
3
3
3
3
3
3
3
3
3
3
3
3
3
3
3
3
3
3
3
3
3
3
3
3
3
3
3
3
3
3
3
3
3
3
3
3
3
3
3
3
3
3
3
3
3
3
3
3
3
3
3
3
3
3
3
3
3
3
3

POINT_DATA 101
SCALARS 1-C double 1
LOOKUP_TABLE default
9.970358361137e-06
5.763670304904e-04
1.662674754455e-03
3.616206518523e-03
6.984502483010e-03
1.266080134471e-02
2.225712325668e-02
3.863767693352e-02
6.448501551946e-02
9.731537940691e-02
1.379026064491e-01
1.354916222693e-01
1.325985812997e-01
1.292227292920e-01
1.254364429546e-01
1.213303287309e-01
1.170386625729e-01
1.127194709017e-01
1.085445533792e-01
1.046218608711e-01
1.011304761288e-01
9.891286412137e-02
9.807667941261e-02
1.016784080293e-01
1.039713868920e-01
1.062948910562e-01
1.085702325148e-01
1.107387073953e-01
1.127556732113e-01
1.145940077362e-01
1.162139946437e-01
1.176041245565e-01
1.187547092883e-01
1.196980099459e-01
1.204338418235e-01
1.210042680748e-01
1.214331826857e-01
1.217331198781e-01
1.219652515232e-01
1.220997407334e-01
1.222166029401e-01
1.222684443191e-01
1.223315406440e-01
1.223505283358e-01
1.223679130646e-01
1.223728577171e-01
1.223862394916e-01
1.223951728819e-01
1.223943082744e-01
1.223939966746e-01
1.223980867039e-01
1.223935314406e-01
1.223964734010e-01
1.223963275334e-01
1.223900726304e-01
1.223977282559e-01
1.223940621791e-01
1.224076712272e-01
1.223863442119e-01
1.223932779271e-01
1.224009090144e-01
1.223956830029e-01
1.223886886717e-01
1.223886895994e-01
1.223944746673e-01
1.223930742725e-01
1.223901348907e-01
1.223971236082e-01
1.224044239695e-01
1.223912310590e-01
1.227236428848e-01
1.223943179029e-01
1.223936045768e-01
1.223902820587e-01
1.223978284959e-01
1.223996694933e-01
1.224058195267e-01
1.223930316316e-01
1.224017416390e-01
1.223932391454e-01
1.223819871469e-01
1.223994355642e-01
1.223946810773e-01
1.223941431209e-01
1.223941146590e-01
1.223871835733e-01
1.223859850627e-01
1.223985128823e-01
1.223857462512e-01
1.224006996937e-01
1.223934312337e-01
1.223935689576e-01
1.224013753517e-01
1.223842989778e-01
1.223859149954e-01
1.223998549685e-01
1.224013881218e-01
1.223949668271e-01
1.223936209308e-01
1.223886215210e-01
1.223933745543e-01
SCALARS 2-Ca double 1
LOOKUP_TABLE default
9.970358361137e-06
3.897343505343e-04
1.112103513495e-03
2.395127879406e-03
4.573341143973e-03
8.174001116383e-03
1.410708051146e-02
2.393510325629e-02
3.915876430280e-02
5.872630384549e-02
8.324614787578e-02
8.759325357117e-02
9.330777965783e-02
1.006987954278e-01
1.101366924405e-01
1.220246319802e-01
1.368108286165e-01
1.549535760851e-01
1.769144440679e-01
2.036199905477e-01
2.360391199632e-01
2.679919834590e-01
2.964885115815e-01
2.688916810910e-01
2.489387769521e-01
2.302139120543e-01
2.132521586637e-01
1.981286890005e-01
1.848293196778e-01
1.733080773753e-01
1.634548704469e-01
1.551424820807e-01
1.482120031888e-01
1.425253904311e-01
1.379023900307e-01
1.342048437561e-01
1.312838910270e-01
1.289923178557e-01
1.272481084410e-01
1.258965996924e-01
1.249117063600e-01
1.241579356970e-01
1.236399961301e-01
1.232455760683e-01
1.229727490552e-01
1.227766577024e-01
1.226525983380e-01
1.225687836480e-01
1.225061317222e-01
1.224651794745e-01
1.224428728399e-01
1.224213849428e-01
1.224135982162e-01
1.224067369105e-01
1.223963289637e-01
1.224014466492e-01
1.223962478037e-01
1.224089418756e-01
1.223870749301e-01
1.223936936409e-01
1.224011430083e-01
1.223958133273e-01
1.223887605013e-01
1.223887287811e-01
1.223944958222e-01
1.223930855791e-01
1.223901408733e-01
1.223971267425e-01
1.224044255955e-01
1.223912318943e-01
1.227236433099e-01
1.223943181171e-01
1.223936046837e-01
1.223902821116e-01
1.223978285218e-01
1.223996695059e-01
1.224058195327e-01
1.223930316345e-01
1.224017416403e-01
1.223932391460e-01
1.223819871472e-01
1.223994355643e-01
1.223946810774e-01
1.223941431209e-01
1.223941146590e-01
1.223871835733e-01
1.223859850627e-01
1.223985128823e-01
1.223857462512e-01
1.224006996937e-01
1.223934312337e-01
1.223935689576e-01
1.224013753517e-01
1.223842989778e-01
1.223859149954e-01
1.223998549685e-01
1.224013881218e-01
1.223949668271e-01
1.223936209308e-01
1.223886215210e-01
1.223933745543e-01
SCALARS 3-Cl double 1
LOOKUP_TABLE default
3.988143344455e+00
3.986733942444e+00
3.984132461937e+00
3.979725914839e+00
3.972701197226e+00
3.962020311619e+00
3.946407479153e+00
3.924353879281e+00
3.894145180926e+00
3.853916182088e+00
3.801734635977e+00
3.735706799583e+00
3.654115215785e+00
3.555556243129e+00
3.439083956220e+00
3.304338079043e+00
3.151642831585e+00
2.982063765964e+00
2.797413231247e+00
2.600200128330e+00
2.393525572918e+00
2.180931793498e+00
1.966216695878e+00
1.753232343459e+00
1.545680434808e+00
1.346928274577e+00
1.159855600949e+00
9.867445760410e-01
8.292181326532e-01
6.882270817549e-01
5.640816159442e-01
4.565191903698e-01
3.647984627104e-01
2.878081301921e-01
2.241799665251e-01
1.723968696854e-01
1.308889041775e-01
9.811278067871e-02
7.261261434110e-02
5.306188015622e-02
3.828808931803e-02
2.728276730645e-02
1.919986021990e-02
1.334579468182e-02
9.164190253856e-03
6.217781281697e-03
4.169562605481e-03
2.764613740658e-03
1.813543662119e-03
1.178068669271e-03
7.589048806955e-04
4.859234703663e-04
3.103696109006e-04
1.988685607468e-04
1.289163587936e-04
8.556131810165e-05
5.901191005138e-05
4.294591154634e-05
3.333735399179e-05
2.765712853460e-05
2.433750722705e-05
2.241934578516e-05
2.132334001021e-05
2.070400104025e-05
2.035783213759e-05
2.016642973987e-05
2.006172621196e-05
2.000505215971e-05
1.997469437604e-05
1.995860008315e-05
1.995015439755e-05
1.994576659986e-05
1.994350978388e-05
1.994236035645e-05
1.994178061000e-05
1.994149099591e-05
1.994134768818e-05
1.994127743468e-05
1.994124331835e-05
1.994122689379e-05
1.994121905919e-05
1.994121536780e-05
1.994121363276e-05
1.994121282536e-05
1.994121245369e-05
1.994121228388e-05
1.994121220600e-05
1.994121217646e-05
1.994121215677e-05
1.994121215461e-05
1.994121215131e-05
1.994121214857e-05
1.994121215257e-05
1.994121214312e-05
1.994121214425e-05
1.994121215172e-05
1.994121215141e-05
1.994121214704e-05
1.994121214804e-05
1.994121214686e-05
1.994121214559e-05
SCALARS 4-H double 1
LOOKUP_TABLE default
2.701109245634e-04
1.204403355386e-03
3.307834005803e-03
7.064979172594e-03
1.334052108861e-02
2.337725690156e-02
3.906394939105e-02
6.303637341935e-02
9.586337309188e-02
1.316905957070e-01
1.700416076895e-01
1.678963251289e-01
1.652974358349e-01
1.622294748176e-01
1.587427880648e-01
1.548944094194e-01
1.508162760341e-01
1.466197362827e-01
1.424505198512e-01
1.384524937630e-01
1.347466206215e-01
1.323230492204e-01
1.313078378883e-01
1.356866205612e-01
1.386156814423e-01
1.416617618920e-01
1.446905365947e-01
1.476316010263e-01
1.504363296533e-01
1.530290862882e-01
1.553925755746e-01
1.574999517205e-01
1.592903379317e-01
1.608166948391e-01
1.620654352055e-01
1.630783799288e-01
1.638820447901e-01
1.644750940488e-01
1.649463531018e-01
1.652890073416e-01
1.655351509972e-01
1.657006168690e-01
1.658386024348e-01
1.659199622048e-01
1.659966234558e-01
1.660189938500e-01
1.660403450320e-01
1.660638031176e-01
1.660872082860e-01
1.660895678623e-01
1.660934692336e-01
1.660984465923e-01
1.661119630143e-01
1.660969517224e-01
1.660932841692e-01
1.661031544532e-01
1.661137372820e-01
1.661056973575e-01
1.660910324295e-01
1.660944009630e-01
1.660996245930e-01
1.661112751232e-01
1.660963913078e-01
1.660966785305e-01
1.660990917766e-01
1.661136021307e-01
1.660900104884e-01
1.660937095815e-01
1.661111138337e-01
1.660999321475e-01
1.663943364088e-01
1.661167185415e-01
1.661014230565e-01
1.661031686067e-01
1.660999615618e-01
1.660952239583e-01
1.661042194420e-01
1.661000344841e-01
1.661146869852e-01
1.661081620859e-01
1.661022529823e-01
1.661101486194e-01
1.661008455850e-01
1.660904242166e-01
1.660949063123e-01
1.660906471405e-01
1.660945547696e-01
1.661063279360e-01
1.660930415513e-01
1.661032480517e-01
1.660974426841e-01
1.660917683493e-01
1.660997958239e-01
1.660987828830e-01
1.661050936809e-01
1.661035309411e-01
1.660985035126e-01
1.661081528216e-01
1.661144604135e-01
1.661075384209e-01
1.660996969765e-01
SCALARS 5-Mg double 1
LOOKUP_TABLE default
1.994071672227e+00
1.993553603902e+00
1.992616802209e+00
1.991084036059e+00
1.988761759952e+00
1.985496956038e+00
1.981353782322e+00
1.976879513317e+00
1.972398841679e+00
1.965547166606e+00
1.955523776562e+00
1.915751768489e+00
1.866348409534e+00
1.806302055429e+00
1.734841728624e+00
1.651474736272e+00
1.556049249749e+00
1.448797777798e+00
1.330336724935e+00
1.201101934489e+00
1.061854142625e+00
9.213867774112e-01
7.846965157700e-01
7.094028986679e-01
6.278728273438e-01
5.495451162902e-01
4.752458743253e-01
4.059823064153e-01
3.425354198602e-01
2.853994712384e-01
2.347999321689e-01
1.907212376607e-01
1.529419374547e-01
1.210766846109e-01
9.462143505534e-02
7.299785916137e-02
5.559374374745e-02
4.179719236170e-02
3.102345025261e-02
2.273408111897e-02
1.644894123906e-02
1.175189227513e-02
8.291474623654e-03
5.777849608294e-03
3.977259136161e-03
2.705090655420e-03
1.818422456241e-03
1.208696104113e-03
7.949483831758e-04
5.178515346837e-04
3.346663042340e-04
2.151082329483e-04
1.380599903037e-04
8.902490325312e-05
5.820184608691e-05
3.906226568931e-05
2.732033045103e-05
2.020230736419e-05
1.593795879703e-05
1.341285044848e-05
1.193475974337e-05
1.107934854533e-05
1.058984042504e-05
1.031281880605e-05
1.015776114411e-05
1.007190824377e-05
1.002488045693e-05
9.999391796298e-06
9.985721218272e-06
9.978464705893e-06
9.974652159788e-06
9.972669079846e-06
9.971647937309e-06
9.971127273922e-06
9.970864376455e-06
9.970732905670e-06
9.970667783523e-06
9.970635826348e-06
9.970620292238e-06
9.970612806189e-06
9.970609231867e-06
9.970607546725e-06
9.970606753707e-06
9.970606384285e-06
9.970606214085e-06
9.970606136251e-06
9.970606100488e-06
9.970606087129e-06
9.970606077905e-06
9.970606077097e-06
9.970606075565e-06
9.970606074247e-06
9.970606076269e-06
9.970606071552e-06
9.970606072124e-06
9.970606075860e-06
9.970606075706e-06
9.970606073518e-06
9.970606074020e-06
9.970606073429e-06
9.970606072797e-06
SCALARS 6-O double 1
LOOKUP_TABLE default
2.010568337471e-02
2.233543857581e-02
2.676313678244e-02
3.470058783135e-02
4.825934096748e-02
7.078721852915e-02
1.081220706057e-01
1.702423071129e-01
2.655571468136e-01
3.837720598949e-01
5.270573322244e-01
5.217228000878e-01
5.154156332287e-01
5.081890082806e-01
5.003278048062e-01
4.921485829648e-01
4.841055625094e-01
4.766805616940e-01
4.703803032229e-01
4.654876849473e-01
4.624609001945e-01
4.641630299061e-01
4.708091439364e-01
4.933882383368e-01
5.110718607904e-01
5.285096715141e-01
5.452688403270e-01
5.610353383713e-01
5.755778741220e-01
5.887344564605e-01
6.003633109766e-01
6.104282841352e-01
6.189032192045e-01
6.259613773843e-01
6.316569735292e-01
6.362053731547e-01
6.397621620050e-01
6.424337242203e-01
6.445135062950e-01
6.459682884448e-01
6.471069316403e-01
6.478405575029e-01
6.484626705480e-01
6.488238229472e-01
6.491025373640e-01
6.492611873709e-01
6.494042090646e-01
6.495059831396e-01
6.495579056465e-01
6.495867578639e-01
6.496198485044e-01
6.496209605627e-01
6.496444479593e-01
6.496415244652e-01
6.496240752013e-01
6.496539291212e-01
6.496494175987e-01
6.496869481284e-01
6.496160671869e-01
6.496388083171e-01
6.496644629404e-01
6.496546965359e-01
6.496263209114e-01
6.496264951980e-01
6.496450726404e-01
6.496481352112e-01
6.496275260006e-01
6.496503442685e-01
6.496809488323e-01
6.496357799746e-01
6.507802193310e-01
6.496534343005e-01
6.496436466338e-01
6.496345519623e-01
6.496555877810e-01
6.496587420152e-01
6.496816898540e-01
6.496412336358e-01
6.496746899530e-01
6.496459200313e-01
6.496092093989e-01
6.496655025960e-01
6.496465875749e-01
6.496397629822e-01
6.496419186504e-01
6.496189957556e-01
6.496173540430e-01
6.496608241410e-01
6.496158810702e-01
6.496658446290e-01
6.496411365710e-01
6.496387125785e-01
6.496661455639e-01
6.496144098578e-01
6.496224133214e-01
6.496634519634e-01
6.496655376721e-01
6.496510983714e-01
6.496502145174e-01
6.496317552690e-01
6.496420936271e-01
SCALARS 7-Sn double 1
LOOKUP_TABLE default
0.000000000000e+00
0.000000000000e+00
0.000000000000e+00
0.000000000000e+00
0.000000000000e+00
0.000000000000e+00
0.000000000000e+00
0.000000000000e+00
0.000000000000e+00
0.000000000000e+00
0.000000000000e+00
0.000000000000e+00
0.000000000000e+00
0.000000000000e+00
0.000000000000e+00
0.000000000000e+00
0.000000000000e+00
0.000000000000e+00
0.000000000000e+00
0.000000000000e+00
0.000000000000e+00
0.000000000000e+00
0.000000000000e+00
0.000000000000e+00
0.000000000000e+00
0.000000000000e+00
0.000000000000e+00
0.000000000000e+00
0.000000000000e+00
0.000000000000e+00
0.000000000000e+00
0.000000000000e+00
0.000000000000e+00
0.000000000000e+00
0.000000000000e+00
0.000000000000e+00
0.000000000000e+00
0.000000000000e+00
0.000000000000e+00
0.000000000000e+00
0.000000000000e+00
0.000000000000e+00
0.000000000000e+00
0.000000000000e+00
0.000000000000e+00
0.000000000000e+00
0.000000000000e+00
0.000000000000e+00
0.000000000000e+00
0.000000000000e+00
0.000000000000e+00
0.000000000000e+00
0.000000000000e+00
0.000000000000e+00
0.000000000000e+00
0.000000000000e+00
0.000000000000e+00
0.000000000000e+00
0.000000000000e+00
0.000000000000e+00
0.000000000000e+00
0.000000000000e+00
0.000000000000e+00
0.000000000000e+00
0.000000000000e+00
0.000000000000e+00
0.000000000000e+00
0.000000000000e+00
0.000000000000e+00
0.000000000000e+00
0.000000000000e+00
0.000000000000e+00
0.000000000000e+00
0.000000000000e+00
0.000000000000e+00
0.000000000000e+00
0.000000000000e+00
0.000000000000e+00
0.000000000000e+00
0.000000000000e+00
0.000000000000e+00
0.000000000000e+00
0.000000000000e+00
0.000000000000e+00
0.000000000000e+00
0.000000000000e+00
0.000000000000e+00
0.000000000000e+00
0.000000000000e+00
0.000000000000e+00
0.000000000000e+00
0.000000000000e+00
0.000000000000e+00
0.000000000000e+00
0.000000000000e+00
0.000000000000e+00
0.000000000000e+00
0.000000000000e+00
0.000000000000e+00
0.000000000000e+00
0.000000000000e+00
SCALARS 8-Zz double 1
LOOKUP_TABLE default
1.035722930241e-15
-3.814083432923e-15
5.758990349477e-16
9.604890361834e-17
7.589662048734e-16
-7.958508653960e-16
-3.509080487487e-16
5.061460397918e-17
-7.047766983795e-16
-1.145835728003e-16
-7.907084778547e-18
-1.846068640151e-16
8.876864416052e-16
6.553272614973e-16
2.940497226281e-16
5.967778111134e-16
5.191212458719e-16
1.793376595518e-16
8.202123636377e-16
6.816193690653e-16
5.512987380172e-17
-2.444182831371e-16
-2.224700926184e-16
-3.370932876254e-16
-1.672507738182e-16
-1.862117938727e-16
4.031585095403e-17
3.574250174002e-16
5.048228985043e-17
-5.520256339801e-17
-7.927257602985e-17
7.842944582907e-17
8.815329633416e-17
3.775600783756e-17
-6.429995438527e-17
-6.175544251215e-17
-1.536791273616e-17
-2.339108500879e-19
-1.145750041688e-16
-1.256539604486e-17
-4.618742677520e-18
-6.419104984194e-18
3.905987475087e-17
-3.489169391076e-17
1.598755999621e-17
5.850437854428e-18
1.064487412486e-17
-2.652679096070e-17
1.442449592642e-17
4.378208308547e-17
4.884317126754e-17
-2.557632505930e-17
-6.472140942552e-18
5.860033377201e-20
4.340241475342e-18
1.288506839905e-17
1.280174345463e-17
-5.968420247552e-18
-3.434227883937e-17
-1.738236432568e-20
-8.383848440996e-19
1.317854527402e-17
1.133118619767e-17
2.761666807346e-17
6.201987726251e-17
-6.777114065248e-18
-3.357018915180e-17
1.319690864816e-17
-2.599390020785e-17
1.774018965394e-17
3.808117354555e-18
2.360403974738e-17
3.029804344631e-19
-1.845294319089e-17
-1.774727131205e-17
2.582879841459e-17
1.331239255413e-17
-1.690761420720e-17
1.130779509706e-17
1.606509072995e-17
-1.656355373345e-17
-3.358527236171e-17
2.938295546584e-17
1.746280751412e-17
-2.071291118023e-18
-1.331481439767e-17
-7.031886776230e-18
1.361551091330e-17
5.397622654136e-18
3.560262290273e-17
-1.246093256911e-17
3.426946921130e-17
-1.245242532080e-17
-1.241201982639e-17
-6.662687808149e-18
-4.318383219671e-18
1.770685042729e-17
-1.169825452538e-17
9.153976074445e-18
2.303761090443e-17
3.353370733214e-18
SCALARS C double 1
LOOKUP_TABLE default
 3.190559220786e-06
 1.844384499311e-04
 5.320588066777e-04
 1.157192361158e-03
 2.235052914824e-03
 4.051478400692e-03
 7.122318065095e-03
 1.236412366698e-02
 2.063531686757e-02
 3.114109028233e-02
 1.007538648276e-01
 1.174594419408e-01
 1.190006543990e-01
 1.180489008061e-01
 1.165648631978e-01
 1.149252927097e-01
 1.130912202805e-01
 1.112043576480e-01
 1.093526604140e-01
 1.075124508383e-01
 1.057574490135e-01
 1.043657124653e-01
 1.019149273346e-01
 1.023293078973e-01
 1.031906350675e-01
 1.038400092811e-01
 1.045108759853e-01
 1.050759711643e-01
 1.056846936039e-01
 1.062536887243e-01
 1.066985055586e-01
 1.071071864398e-01
 1.074752487169e-01
 1.077776697651e-01
 1.079882796661e-01
 1.081751028244e-01
 1.083456875307e-01
 1.084075156970e-01
 1.085087751970e-01
 1.085502745250e-01
 1.085559537359e-01
 1.086190687387e-01
 1.086114600018e-01
 1.086332566062e-01
 1.086325540494e-01
 1.086030310622e-01
 1.086624629272e-01
 1.086627504522e-01
 1.086025975033e-01
 1.086534920182e-01
 1.086046068911e-01
 1.086659875537e-01
 1.086467464611e-01
 1.086100683887e-01
 1.086433198250e-01
 1.086369364804e-01
 1.086684088941e-01
 1.086304239460e-01
 1.086299100554e-01
 1.086621161064e-01
 1.086243298011e-01
 1.086563474361e-01
 1.086369994337e-01
 1.086229544482e-01
 1.086407073626e-01
 1.086526728171e-01
 1.086247994996e-01
 1.086500611463e-01
 1.086193323338e-01
 1.086655342322e-01
 1.086306554358e-01
 1.086339084021e-01
 1.086445922573e-01
 1.086434249241e-01
 1.086387698995e-01
 1.086233875879e-01
 1.086603787526e-01
 1.086362216796e-01
 1.086190181430e-01
 1.086538203004e-01
 1.086259617070e-01
 1.086515783343e-01
 1.086420925629e-01
 1.086247929114e-01
 1.086652790349e-01
 1.086359342629e-01
 1.086247557868e-01
 1.086394295721e-01
 1.086497406443e-01
 1.086349203330e-01
 1.086277235768e-01
 1.086559566284e-01
 1.086218624967e-01
 1.086834116581e-01
 1.086211977700e-01
 1.086222870670e-01
 1.086428517746e-01
 1.086407927628e-01
 1.086155849681e-01
 1.087080742621e-01
 1.085358730897e-01
SCALARS Ca double 1
LOOKUP_TABLE default
 3.190559220786e-06
 1.247156684800e-04
 3.558750541600e-04
 7.664450776937e-04
 1.463477102225e-03
 2.615694541649e-03
 4.514290243792e-03
 7.659274576780e-03
 1.253087252940e-02
 1.879251913876e-02
 5.495128144802e-02
 6.508088964104e-02
 6.814302397024e-02
 7.057240176596e-02
 7.345630791907e-02
 7.709763213666e-02
 8.159883449061e-02
 8.715214042445e-02
 9.392174196151e-02
 1.021750265762e-01
 1.122302502982e-01
 1.221141003113e-01
 1.541078462346e-01
 1.558374144163e-01
 1.495800770829e-01
 1.434939914579e-01
 1.380090042609e-01
 1.330406921532e-01
 1.287482002623e-01
 1.250421420003e-01
 1.218155465122e-01
 1.191194296666e-01
 1.169015582967e-01
 1.150824125586e-01
 1.135782005980e-01
 1.123992760872e-01
 1.114979060127e-01
 1.107304530256e-01
 1.101992850213e-01
 1.097652662374e-01
 1.094183845943e-01
 1.092237044088e-01
 1.090301646709e-01
 1.089196711369e-01
 1.088261010640e-01
 1.087322467225e-01
 1.087476975366e-01
 1.087183057530e-01
 1.086383809139e-01
 1.086762704550e-01
 1.086189384175e-01
 1.086749006513e-01
 1.086522263877e-01
 1.086133993807e-01
 1.086453218464e-01
 1.086381263631e-01
 1.086691082922e-01
 1.086308305524e-01
 1.086301438846e-01
 1.086622491345e-01
 1.086244046789e-01
 1.086563891398e-01
 1.086370224191e-01
 1.086229669864e-01
 1.086407141321e-01
 1.086526764352e-01
 1.086248014140e-01
 1.086500621492e-01
 1.086193328541e-01
 1.086655344995e-01
 1.086306555718e-01
 1.086339084707e-01
 1.086445922915e-01
 1.086434249410e-01
 1.086387699078e-01
 1.086233875919e-01
 1.086603787545e-01
 1.086362216806e-01
 1.086190181434e-01
 1.086538203006e-01
 1.086259617071e-01
 1.086515783344e-01
 1.086420925629e-01
 1.086247929114e-01
 1.086652790349e-01
 1.086359342629e-01
 1.086247557868e-01
 1.086394295721e-01
 1.086497406443e-01
 1.086349203330e-01
 1.086277235768e-01
 1.086559566284e-01
 1.086218624967e-01
 1.086834116581e-01
 1.086211977700e-01
 1.086222870670e-01
 1.086428517746e-01
 1.086407927628e-01
 1.086155849681e-01
 1.087080742621e-01
 1.085358730897e-01
SCALARS Cl double 1
LOOKUP_TABLE default
 1.276223688314e+00
 1.275761779792e+00
 1.274929301515e+00
 1.273519198797e+00
 1.271271276971e+00
 1.267853375042e+00
 1.262857241560e+00
 1.255800051331e+00
 1.246133215436e+00
 1.233259865998e+00
 1.216554749965e+00
 1.195423746114e+00
 1.169314202139e+00
 1.137775388110e+00
 1.100504371950e+00
 1.057385823613e+00
 1.008523500311e+00
 9.542583664559e-01
 8.951703680286e-01
 8.320623556116e-01
 7.659266809922e-01
 6.978968529102e-01
 6.291878432926e-01
 5.610328729819e-01
 4.946164297723e-01
 4.310159115474e-01
 3.711528162597e-01
 3.157574386607e-01
 2.653491097132e-01
 2.202320917007e-01
 1.805056477980e-01
 1.460857617135e-01
 1.167352050515e-01
 9.209836259078e-02
 7.173740327649e-02
 5.516685522710e-02
 4.188434055093e-02
 3.139600839633e-02
 2.323597625777e-02
 1.697975756567e-02
 1.225215681651e-02
 8.730462856355e-03
 6.143939328151e-03
 4.270643209022e-03
 2.932533268732e-03
 1.989684852305e-03
 1.334256566483e-03
 8.846740983110e-04
 5.803324679775e-04
 3.769809950217e-04
 2.428489324701e-04
 1.554951064178e-04
 9.931801761270e-05
 6.363777447495e-05
 4.125312770832e-05
 2.737955073483e-05
 1.888376213657e-05
 1.374265604412e-05
 1.066792559525e-05
 8.850258134967e-06
 7.787982112879e-06
 7.174172015626e-06
 6.823451092148e-06
 6.625263146923e-06
 6.514489373463e-06
 6.453240755939e-06
 6.419735733984e-06
 6.401600067298e-06
 6.391885626145e-06
 6.386735428604e-06
 6.384032920315e-06
 6.382628748652e-06
 6.381906561374e-06
 6.381538745628e-06
 6.381353232453e-06
 6.381260567946e-06
 6.381214683796e-06
 6.381192217513e-06
 6.381181315039e-06
 6.381176031558e-06
 6.381173542360e-06
 6.381172346363e-06
 6.381171797016e-06
 6.381171551264e-06
 6.381171402504e-06
 6.381171368144e-06
 6.381171351176e-06
 6.381171333868e-06
 6.381171316962e-06
 6.381171330710e-06
 6.381171333242e-06
 6.381171311604e-06
 6.381171339834e-06
 6.381171287454e-06
 6.381171334020e-06
 6.381171338893e-06
 6.381171324009e-06
 6.381171322611e-06
 6.381171341181e-06
 6.381171271505e-06
 6.381171399049e-06
SCALARS H double 1
LOOKUP_TABLE default
 3.542055048139e+04
 3.542024842493e+04
 3.542024926436e+04
 3.542025075393e+04
 3.542025325968e+04
 3.542025738254e+04
 3.542026415755e+04
 3.542027544640e+04
 3.542029345007e+04
 3.542031794735e+04
 3.542014823445e+04
 3.542009752099e+04
 3.542010303509e+04
 3.542011986980e+04
 3.542014131411e+04
 3.542016621176e+04
 3.542019481531e+04
 3.542022663165e+04
 3.542026123132e+04
 3.542029827423e+04
 3.542033708877e+04
 3.542037820466e+04
 3.542040135558e+04
 3.542044216707e+04
 3.542048851187e+04
 3.542053395949e+04
 3.542057672698e+04
 3.542061672147e+04
 3.542065288694e+04
 3.542068529336e+04
 3.542071412376e+04
 3.542073903511e+04
 3.542076017316e+04
 3.542077793154e+04
 3.542079270553e+04
 3.542080462558e+04
 3.542081404859e+04
 3.542082171675e+04
 3.542082746581e+04
 3.542083193409e+04
 3.542083544869e+04
 3.542083775416e+04
 3.542083971873e+04
 3.542084097536e+04
 3.542084194584e+04
 3.542084273505e+04
 3.542084297709e+04
 3.542084330729e+04
 3.542084376243e+04
 3.542084369565e+04
 3.542084399745e+04
 3.542084379763e+04
 3.542084392063e+04