# vtk DataFile Version 3.0
Unstructured Grid from OpenGeoSys
ASCII
DATASET UNSTRUCTURED_GRID
FIELD TimesAndCycles 2
TIME 1 1 double
6.000000000000e+03
CYLCE 1 1 long
60
POINTS 101 double
0.000000000000e+00 0.000000000000e+00 0.000000000000e+00
5.000000000000e-03 0.000000000000e+00 0.000000000000e+00
1.000000000000e-02 0.000000000000e+00 0.000000000000e+00
1.500000000000e-02 0.000000000000e+00 0.000000000000e+00
2.000000000000e-02 0.000000000000e+00 0.000000000000e+00
2.500000000000e-02 0.000000000000e+00 0.000000000000e+00
3.000000000000e-02 0.000000000000e+00 0.000000000000e+00
3.500000000000e-02 0.000000000000e+00 0.000000000000e+00
4.000000000000e-02 0.000000000000e+00 0.000000000000e+00
4.500000000000e-02 0.000000000000e+00 0.000000000000e+00
5.000000000000e-02 0.000000000000e+00 0.000000000000e+00
5.500000000000e-02 0.000000000000e+00 0.000000000000e+00
6.000000000000e-02 0.000000000000e+00 0.000000000000e+00
6.500000000000e-02 0.000000000000e+00 0.000000000000e+00
7.000000000000e-02 0.000000000000e+00 0.000000000000e+00
7.500000000000e-02 0.000000000000e+00 0.000000000000e+00
8.000000000000e-02 0.000000000000e+00 0.000000000000e+00
8.500000000000e-02 0.000000000000e+00 0.000000000000e+00
9.000000000000e-02 0.000000000000e+00 0.000000000000e+00
9.500000000000e-02 0.000000000000e+00 0.000000000000e+00
1.000000000000e-01 0.000000000000e+00 0.000000000000e+00
1.050000000000e-01 0.000000000000e+00 0.000000000000e+00
1.100000000000e-01 0.000000000000e+00 0.000000000000e+00
1.150000000000e-01 0.000000000000e+00 0.000000000000e+00
1.200000000000e-01 0.000000000000e+00 0.000000000000e+00
1.250000000000e-01 0.000000000000e+00 0.000000000000e+00
1.300000000000e-01 0.000000000000e+00 0.000000000000e+00
1.350000000000e-01 0.000000000000e+00 0.000000000000e+00
1.400000000000e-01 0.000000000000e+00 0.000000000000e+00
1.450000000000e-01 0.000000000000e+00 0.000000000000e+00
1.500000000000e-01 0.000000000000e+00 0.000000000000e+00
1.550000000000e-01 0.000000000000e+00 0.000000000000e+00
1.600000000000e-01 0.000000000000e+00 0.000000000000e+00
1.650000000000e-01 0.000000000000e+00 0.000000000000e+00
1.700000000000e-01 0.000000000000e+00 0.000000000000e+00
1.750000000000e-01 0.000000000000e+00 0.000000000000e+00
1.800000000000e-01 0.000000000000e+00 0.000000000000e+00
1.850000000000e-01 0.000000000000e+00 0.000000000000e+00
1.900000000000e-01 0.000000000000e+00 0.000000000000e+00
1.950000000000e-01 0.000000000000e+00 0.000000000000e+00
2.000000000000e-01 0.000000000000e+00 0.000000000000e+00
2.050000000000e-01 0.000000000000e+00 0.000000000000e+00
2.100000000000e-01 0.000000000000e+00 0.000000000000e+00
2.150000000000e-01 0.000000000000e+00 0.000000000000e+00
2.200000000000e-01 0.000000000000e+00 0.000000000000e+00
2.250000000000e-01 0.000000000000e+00 0.000000000000e+00
2.300000000000e-01 0.000000000000e+00 0.000000000000e+00
2.350000000000e-01 0.000000000000e+00 0.000000000000e+00
2.400000000000e-01 0.000000000000e+00 0.000000000000e+00
2.450000000000e-01 0.000000000000e+00 0.000000000000e+00
2.500000000000e-01 0.000000000000e+00 0.000000000000e+00
2.550000000000e-01 0.000000000000e+00 0.000000000000e+00
2.600000000000e-01 0.000000000000e+00 0.000000000000e+00
2.650000000000e-01 0.000000000000e+00 0.000000000000e+00
2.700000000000e-01 0.000000000000e+00 0.000000000000e+00
2.750000000000e-01 0.000000000000e+00 0.000000000000e+00
2.800000000000e-01 0.000000000000e+00 0.000000000000e+00
2.850000000000e-01 0.000000000000e+00 0.000000000000e+00
2.900000000000e-01 0.000000000000e+00 0.000000000000e+00
2.950000000000e-01 0.000000000000e+00 0.000000000000e+00
3.000000000000e-01 0.000000000000e+00 0.000000000000e+00
3.050000000000e-01 0.000000000000e+00 0.000000000000e+00
3.100000000000e-01 0.000000000000e+00 0.000000000000e+00
3.150000000000e-01 0.000000000000e+00 0.000000000000e+00
3.200000000000e-01 0.000000000000e+00 0.000000000000e+00
3.250000000000e-01 0.000000000000e+00 0.000000000000e+00
3.300000000000e-01 0.000000000000e+00 0.000000000000e+00
3.350000000000e-01 0.000000000000e+00 0.000000000000e+00
3.400000000000e-01 0.000000000000e+00 0.000000000000e+00
3.450000000000e-01 0.000000000000e+00 0.000000000000e+00
3.500000000000e-01 0.000000000000e+00 0.000000000000e+00
3.550000000000e-01 0.000000000000e+00 0.000000000000e+00
3.600000000000e-01 0.000000000000e+00 0.000000000000e+00
3.650000000000e-01 0.000000000000e+00 0.000000000000e+00
3.700000000000e-01 0.000000000000e+00 0.000000000000e+00
3.750000000000e-01 0.000000000000e+00 0.000000000000e+00
3.800000000000e-01 0.000000000000e+00 0.000000000000e+00
3.850000000000e-01 0.000000000000e+00 0.000000000000e+00
3.900000000000e-01 0.000000000000e+00 0.000000000000e+00
3.950000000000e-01 0.000000000000e+00 0.000000000000e+00
4.000000000000e-01 0.000000000000e+00 0.000000000000e+00
4.050000000000e-01 0.000000000000e+00 0.000000000000e+00
4.100000000000e-01 0.000000000000e+00 0.000000000000e+00
4.150000000000e-01 0.000000000000e+00 0.000000000000e+00
4.200000000000e-01 0.000000000000e+00 0.000000000000e+00
4.250000000000e-01 0.000000000000e+00 0.000000000000e+00
4.300000000000e-01 0.000000000000e+00 0.000000000000e+00
4.350000000000e-01 0.000000000000e+00 0.000000000000e+00
4.400000000000e-01 0.000000000000e+00 0.000000000000e+00
4.450000000000e-01 0.000000000000e+00 0.000000000000e+00
4.500000000000e-01 0.000000000000e+00 0.000000000000e+00
4.550000000000e-01 0.000000000000e+00 0.000000000000e+00
4.600000000000e-01 0.000000000000e+00 0.000000000000e+00
4.650000000000e-01 0.000000000000e+00 0.000000000000e+00
4.700000000000e-01 0.000000000000e+00 0.000000000000e+00
4.750000000000e-01 0.000000000000e+00 0.000000000000e+00
4.800000000000e-01 0.000000000000e+00 0.000000000000e+00
4.850000000000e-01 0.000000000000e+00 0.000000000000e+00
4.900000000000e-01 0.000000000000e+00 0.000000000000e+00
4.950000000000e-01 0.000000000000e+00 0.000000000000e+00
5.000000000000e-01 0.000000000000e+00 0.000000000000e+00
CELLS 100 300
2 0 1
2 2 3
2 4 5
2 6 7
2 8 9
2 10 11
2 12 13
2 14 15
2 16 17
2 18 19
2 20 21
2 22 23
2 24 25
2 26 27
2 28 29
2 30 31
2 32 33
2 34 35
2 36 37
2 38 39
2 40 41
2 42 43
2 44 45
2 46 47
2 48 49
2 50 51
2 52 53
2 54 55
2 56 57
2 58 59
2 60 61
2 62 63
2 64 65
2 66 67
2 68 69
2 70 71
2 72 73
2 74 75
2 76 77
2 78 79
2 80 81
2 82 83
2 84 85
2 86 87
2 88 89
2 90 91
2 92 93
2 94 95
2 96 97
2 98 99
2 1 2
2 3 4
2 5 6
2 7 8
2 9 10
2 11 12
2 13 14
2 15 16
2 17 18
2 19 20
2 21 22
2 23 24
2 25 26
2 27 28
2 29 30
2 31 32
2 33 34
2 35 36
2 37 38
2 39 40
2 41 42
2 43 44
2 45 46
2 47 48
2 49 50
2 51 52
2 53 54
2 55 56
2 57 58
2 59 60
2 61 62
2 63 64
2 65 66
2 67 68
2 69 70
2 71 72
2 73 74
2 75 76
2 77 78
2 79 80
2 81 82
2 83 84
2 85 86
2 87 88
2 89 90
2 91 92
2 93 94
2 95 96
2 97 98
2 99 100

CELL_TYPES 100
3
3
3
3
3
3
3
3
3
3
3
3
3
3
3
3
3
3
3
3
3
3
3
3
3
3
3
3
3
3
3
3
3
3
3
3
3
3
3
3
3
3
3
3
3
3
3
3
3
3
3
3
3
3
3
3
3
3
3
3
3
3
3
3
3
3
3
3
3
3
3
3
3
3
3
3
3
3
3
3
3
3
3
3
3
3
3
3
3
3
3
3
3
3
3
3
3
3
3
3

POINT_DATA 101
SCALARS 1-C double 1
LOOKUP_TABLE default
9.970358361137e-06
3.851003509878e-03
1.108797212313e-02
2.344118423464e-02
4.297923510924e-02
7.431213602309e-02
1.325335309553e-01
1.279504138931e-01
1.228992461246e-01
1.176740425108e-01
1.126294497396e-01
1.082726997777e-01
1.046558872334e-01
1.006446591768e-01
1.064348083334e-01
1.100891007599e-01
1.128301339738e-01
1.152582708061e-01
1.173045694730e-01
1.189364082007e-01
1.201546417931e-01
1.210299903489e-01
1.216171968396e-01
1.219747473790e-01
1.221968602314e-01
1.223125800131e-01
1.223712457310e-01
1.223987098700e-01
1.224066853526e-01
1.224066508623e-01
1.224026450863e-01
1.224006778019e-01
1.223911579086e-01
1.223955415577e-01
1.224021252160e-01
1.223944226701e-01
1.223908303682e-01
1.223918632765e-01
1.223856728078e-01
1.223923537862e-01
1.223868425784e-01
1.223918577334e-01
1.223885988042e-01
1.223998271681e-01
1.224071134870e-01
1.223891623106e-01
1.223830966918e-01
1.223852325182e-01
1.223953893347e-01
1.223951740420e-01
1.224012484476e-01
1.224015276860e-01
1.224045387712e-01
1.223927911246e-01
1.223915093474e-01
1.223938404035e-01
1.224012564414e-01
1.223939723368e-01
1.223952121941e-01
1.223984726941e-01
1.223968807437e-01
1.223811111293e-01
1.223944539711e-01
1.223918378494e-01
1.223925528313e-01
1.224012998102e-01
1.223942246834e-01
1.223939295765e-01
1.223987711117e-01
1.223938403643e-01
1.223932373527e-01
1.224011406370e-01
1.223981394544e-01
1.223868828294e-01
1.223945458178e-01
1.224011769952e-01
1.224002608042e-01
1.223936470005e-01
1.224024030224e-01
1.223852789842e-01
1.223931342144e-01
1.223936156877e-01
1.223921059110e-01
1.223951638925e-01
1.223904364476e-01
1.223944494964e-01
1.223917185175e-01
1.223935978649e-01
1.223940983312e-01
1.223937830805e-01
1.223937185806e-01
1.223942209865e-01
1.223937798767e-01
1.223966920046e-01
1.223942167039e-01
1.223923778771e-01
1.223959067460e-01
1.223942760915e-01
1.223959922922e-01
1.223938179417e-01
1.223948765228e-01
SCALARS 2-Ca double 1
LOOKUP_TABLE default
9.970358361137e-06
2.970606548585e-03
8.470453654235e-03
1.773316065994e-02
3.222129766442e-02
5.471610388365e-02
9.326431055756e-02
1.035136026642e-01
1.171024820483e-01
1.346401928615e-01
1.565887876084e-01
1.827419161020e-01
2.152192611782e-01
2.757257769515e-01
2.404890800351e-01
2.150264962700e-01
1.950333579902e-01
1.782666721959e-01
1.645476474112e-01
1.535881133440e-01
1.450195273833e-01
1.384866058022e-01
1.336092907440e-01
1.300369819228e-01
1.275022660905e-01
1.257305942698e-01
1.245276047535e-01
1.237312160391e-01
1.232134280798e-01
1.228853267980e-01
1.226810756653e-01
1.225594933886e-01
1.224800176935e-01
1.224443270459e-01
1.224284150723e-01
1.224083330132e-01
1.223980593975e-01
1.223955543713e-01
1.223875250758e-01
1.223932676167e-01
1.223872859619e-01
1.223920693664e-01
1.223886982105e-01
1.223998731308e-01
1.224071344133e-01
1.223891716950e-01
1.223831008383e-01
1.223852343239e-01
1.223953901098e-01
1.223951743701e-01
1.224012485846e-01
1.224015277424e-01
1.224045387942e-01
1.223927911339e-01
1.223915093511e-01
1.223938404049e-01
1.224012564420e-01
1.223939723370e-01
1.223952121941e-01
1.223984726941e-01
1.223968807437e-01
1.223811111293e-01
1.223944539711e-01
1.223918378494e-01
1.223925528313e-01
1.224012998102e-01
1.223942246834e-01
1.223939295765e-01
1.223987711117e-01
1.223938403643e-01
1.223932373527e-01
1.224011406370e-01
1.223981394544e-01
1.223868828294e-01
1.223945458178e-01
1.224011769952e-01
1.224002608042e-01
1.223936470005e-01
1.224024030224e-01
1.223852789842e-01
1.223931342144e-01
1.223936156877e-01
1.223921059110e-01
1.223951638925e-01
1.223904364476e-01
1.223944494964e-01
1.223917185175e-01
1.223935978649e-01
1.223940983312e-01
1.223937830805e-01
1.223937185806e-01
1.223942209865e-01
1.223937798767e-01
1.223966920046e-01
1.223942167039e-01
1.223923778771e-01
1.223959067460e-01
1.223942760915e-01
1.223959922922e-01
1.223938179417e-01
1.223948765228e-01
SCALARS 3-Cl double 1
LOOKUP_TABLE default
3.988143344455e+00
3.971405915445e+00
3.941457984656e+00
3.893206953221e+00
3.821232890611e+00
3.720382013453e+00
3.586486538578e+00
3.417096781938e+00
3.212108143354e+00
2.974118335470e+00
2.708447326734e+00
2.422775283147e+00
2.126443942654e+00
1.829532028044e+00
1.541856890610e+00
1.272060917904e+00
1.026917294844e+00
8.109339643359e-01
6.262741291549e-01
4.729553329184e-01
3.492492796103e-01
2.521877112800e-01
1.780838065580e-01
1.229980953090e-01
8.310490162771e-02
5.494243140373e-02
3.555153509469e-02
2.252236003889e-02
1.397447595793e-02
8.496145363542e-03
5.064473350363e-03
2.962407669811e-03
1.702670177636e-03
9.637240081708e-04
5.392551847042e-04
3.003772694295e-04
1.686134532671e-04
9.734539418541e-05
5.953102069965e-05
3.984024833886e-05
2.977349980046e-05
2.471863839511e-05
2.222466381058e-05
2.101517182936e-05
2.043840007728e-05
2.016784654216e-05
2.004296296985e-05
1.998622007220e-05
1.996083259834e-05
1.994964404861e-05
1.994478540168e-05
1.994270579539e-05
1.994182817630e-05
1.994146289256e-05
1.994131290422e-05
1.994125212538e-05
1.994122781841e-05
1.994121821175e-05
1.994121446935e-05
1.994121302895e-05
1.994121247515e-05
1.994121226626e-05
1.994121219334e-05
1.994121216188e-05
1.994121215470e-05
1.994121215055e-05
1.994121215046e-05
1.994121214756e-05
1.994121215139e-05
1.994121214841e-05
1.994121214794e-05
1.994121214902e-05
1.994121214873e-05
1.994121214588e-05
1.994121214676e-05
1.994121215255e-05
1.994121215180e-05
1.994121214794e-05
1.994121214852e-05
1.994121214576e-05
1.994121214825e-05
1.994121214802e-05
1.994121214503e-05
1.994121214868e-05
1.994121214731e-05
1.994121214431e-05
1.994121214938e-05
1.994121214845e-05
1.994121214698e-05
1.994121214950e-05
1.994121214741e-05
1.994121214472e-05
1.994121214858e-05
1.994121215713e-05
1.994121215073e-05
1.994121214189e-05
1.994121214638e-05
1.994121214555e-05
1.994121215098e-05
1.994121214820e-05
1.994121214821e-05
SCALARS 4-H double 1
LOOKUP_TABLE default
2.701109245634e-04
7.510842935346e-03
2.065827379795e-02
4.090185209304e-02
6.892081502119e-02
1.071699113049e-01
1.653213579142e-01
1.611884992335e-01
1.565523132119e-01
1.516594199417e-01
1.468579000794e-01
1.425942014659e-01
1.389344757039e-01
1.344034757768e-01
1.412288049006e-01
1.459095715989e-01
1.496640404026e-01
1.531460506872e-01
1.561918197123e-01
1.587766144373e-01
1.608613530558e-01
1.624761869384e-01
1.636707344506e-01
1.645134572293e-01
1.650996427022e-01
1.654889640940e-01
1.657166318800e-01
1.658890912920e-01
1.659692626592e-01
1.660283167389e-01
1.660597304336e-01
1.660766230366e-01
1.660799998125e-01
1.661054810488e-01
1.661053919738e-01
1.660892814615e-01
1.660903277369e-01
1.661081587266e-01
1.661000155290e-01
1.660907154201e-01
1.660903950073e-01
1.660958072335e-01
1.660983724814e-01
1.661041282629e-01
1.661070964473e-01
1.660933246150e-01
1.660967891972e-01
1.661027415391e-01
1.661070733202e-01
1.660963732270e-01
1.661106504114e-01
1.661045084647e-01
1.661056188928e-01
1.661030036236e-01
1.661072928562e-01
1.660972733226e-01
1.661063498836e-01
1.661049732921e-01
1.660977403371e-01
1.661032234139e-01
1.661041224596e-01
1.660991063632e-01
1.661060448210e-01
1.661009719101e-01
1.661113854745e-01
1.661101113073e-01
1.661095508139e-01
1.660934993817e-01
1.661038980816e-01
1.660965927331e-01
1.660963602849e-01
1.661123874297e-01
1.661163806538e-01
1.661073386846e-01
1.661094250253e-01
1.661048115010e-01
1.661023253079e-01
1.660920196143e-01
1.661117396304e-01
1.660956448532e-01
1.661068748829e-01
1.661107452777e-01
1.661068393636e-01
1.660967887876e-01
1.660899670761e-01
1.661160820199e-01
1.660954721256e-01
1.660953958182e-01
1.660981225494e-01
1.660928936695e-01
1.661106717389e-01
1.661004146770e-01
1.660978053656e-01
1.661096640011e-01
1.660899682827e-01
1.661116655567e-01
1.661123352225e-01
1.661125919525e-01
1.661071759882e-01
1.661054520302e-01
1.661160113975e-01
SCALARS 5-Mg double 1
LOOKUP_TABLE default
1.994071672227e+00
1.986583354684e+00
1.973346510797e+00
1.952311500185e+00
1.921374382750e+00
1.879787038866e+00
1.832512489686e+00
1.732985202198e+00
1.611850835753e+00
1.470093017384e+00
1.310264325498e+00
1.136918425249e+00
9.526585973821e-01
7.396848962474e-01
6.368741736034e-01
5.310930634419e-01
4.312554234053e-01
3.424585807781e-01
2.658939866393e-01
2.018259613160e-01
1.497597542150e-01
1.086372401867e-01
7.704980937457e-02
5.343681311075e-02
3.624704495477e-02
2.405320144524e-02
1.561940852487e-02
9.928673850312e-03
6.180495251704e-03
3.769396746028e-03
2.253806096128e-03
1.322388248190e-03
7.624753039170e-04
4.330765158420e-04
2.433377359571e-04
1.362782916164e-04
7.707769734105e-05
4.498160223888e-05
2.791324231909e-05
1.900629371114e-05
1.444336639064e-05
1.214768618480e-05
1.101292562284e-05
1.046162317731e-05
1.019827371040e-05
1.007453886137e-05
1.001733502506e-05
9.991304391141e-06
9.979641128404e-06
9.974493856361e-06
9.972255659971e-06
9.971296432810e-06
9.970891126764e-06
9.970722228550e-06
9.970652798115e-06
9.970624632014e-06
9.970613355793e-06
9.970608894331e-06
9.970607154747e-06
9.970606484616e-06
9.970606226548e-06
9.970606129099e-06
9.970606095212e-06
9.970606080417e-06
9.970606077163e-06
9.970606075210e-06
9.970606075209e-06
9.970606073774e-06
9.970606075694e-06
9.970606074205e-06
9.970606073968e-06
9.970606074509e-06
9.970606074366e-06
9.970606072942e-06
9.970606073380e-06
9.970606076275e-06
9.970606075900e-06
9.970606073969e-06
9.970606074260e-06
9.970606072881e-06
9.970606074124e-06
9.970606074009e-06
9.970606072515e-06
9.970606074338e-06
9.970606073654e-06
9.970606072154e-06
9.970606074692e-06
9.970606074225e-06
9.970606073492e-06
9.970606074749e-06
9.970606073704e-06
9.970606072362e-06
9.970606074291e-06
9.970606078567e-06
9.970606075364e-06
9.970606070947e-06
9.970606073188e-06
9.970606072775e-06
9.970606075491e-06
9.970606074098e-06
9.970606074106e-06
SCALARS 6-O double 1
LOOKUP_TABLE default
2.010568337471e-02
3.600230627378e-02
6.563453761685e-02
1.149871849336e-01
1.908495451426e-01
3.085109588821e-01
5.182760558934e-01
5.100825870545e-01
5.018352665881e-01
4.944225803736e-01
4.888431408453e-01
4.864962876091e-01
4.871510135417e-01
4.862130974835e-01
5.199419874734e-01
5.453865920655e-01
5.665190051746e-01
5.852643430581e-01
6.012365050166e-01
6.143244333236e-01
6.245888952987e-01
6.323906783520e-01
6.380847164481e-01
6.420579722423e-01
6.448129037989e-01
6.466222706118e-01
6.477848676097e-01
6.485399295246e-01
6.489886856587e-01
6.492646950696e-01
6.494228503516e-01
6.495200140326e-01
6.495498475327e-01
6.496090019575e-01
6.496478157391e-01
6.496274059434e-01
6.496230836857e-01
6.496383061336e-01
6.496173654456e-01
6.496336447679e-01
6.496174040992e-01
6.496353832297e-01
6.496270013579e-01
6.496636188271e-01
6.496869878640e-01
6.496262605424e-01
6.496098016031e-01
6.496191878104e-01
6.496518253098e-01
6.496458298818e-01
6.496711919212e-01
6.496689587546e-01
6.496785473087e-01
6.496419967172e-01
6.496402959906e-01
6.496422793861e-01
6.496690657858e-01
6.496465251166e-01
6.496466282685e-01
6.496591513435e-01
6.496548249325e-01
6.496050080132e-01
6.496485058552e-01
6.496381209983e-01
6.496454727675e-01
6.496710766203e-01
6.496495709819e-01
6.496406599129e-01
6.496603839384e-01
6.496419389951e-01
6.496400137375e-01
6.496717371967e-01
6.496647302324e-01
6.496264393508e-01
6.496504714994e-01
6.496680583471e-01
6.496640666469e-01
6.496390723543e-01
6.496752004009e-01
6.496157808620e-01
6.496449615795e-01
6.496483411944e-01
6.496418588968e-01
6.496460076142e-01
6.496284143908e-01
6.496535109869e-01
6.496350131502e-01
6.496406130344e-01
6.496434777882e-01
6.496399176185e-01
6.496486131271e-01
6.496449917965e-01
6.496423638533e-01
6.496570296603e-01
6.496397558029e-01
6.496450879177e-01
6.496560093266e-01
6.496512457597e-01
6.496536864091e-01
6.496463013569e-01
6.496547567846e-01
SCALARS 7-Sn double 1
LOOKUP_TABLE default
0.000000000000e+00
0.000000000000e+00
0.000000000000e+00
0.000000000000e+00
0.000000000000e+00
0.000000000000e+00
0.000000000000e+00
0.000000000000e+00
0.000000000000e+00
0.000000000000e+00
0.000000000000e+00
0.000000000000e+00
0.000000000000e+00
0.000000000000e+00
0.000000000000e+00
0.000000000000e+00
0.000000000000e+00
0.000000000000e+00
0.000000000000e+00
0.000000000000e+00
0.000000000000e+00
0.000000000000e+00
0.000000000000e+00
0.000000000000e+00
0.000000000000e+00
0.000000000000e+00
0.000000000000e+00
0.000000000000e+00
0.000000000000e+00
0.000000000000e+00
0.000000000000e+00
0.000000000000e+00
0.000000000000e+00
0.000000000000e+00
0.000000000000e+00
0.000000000000e+00
0.000000000000e+00
0.000000000000e+00
0.000000000000e+00
0.000000000000e+00
0.000000000000e+00
0.000000000000e+00
0.000000000000e+00
0.000000000000e+00
0.000000000000e+00
0.000000000000e+00
0.000000000000e+00
0.000000000000e+00
0.000000000000e+00
0.000000000000e+00
0.000000000000e+00
0.000000000000e+00
0.000000000000e+00
0.000000000000e+00
0.000000000000e+00
0.000000000000e+00
0.000000000000e+00
0.000000000000e+00
0.000000000000e+00
0.000000000000e+00
0.000000000000e+00
0.000000000000e+00
0.000000000000e+00
0.000000000000e+00
0.000000000000e+00
0.000000000000e+00
0.000000000000e+00
0.000000000000e+00
0.000000000000e+00
0.000000000000e+00
0.000000000000e+00
0.000000000000e+00
0.000000000000e+00
0.000000000000e+00
0.000000000000e+00
0.000000000000e+00
0.000000000000e+00
0.000000000000e+00
0.000000000000e+00
0.000000000000e+00
0.000000000000e+00
0.000000000000e+00
0.000000000000e+00
0.000000000000e+00
0.000000000000e+00
0.000000000000e+00
0.000000000000e+00
0.000000000000e+00
0.000000000000e+00
0.000000000000e+00
0.000000000000e+00
0.000000000000e+00
0.000000000000e+00
0.000000000000e+00
0.000000000000e+00
0.000000000000e+00
0.000000000000e+00
0.000000000000e+00
0.000000000000e+00
0.000000000000e+00
0.000000000000e+00
SCALARS 8-Zz double 1
LOOKUP_TABLE default
1.035722930241e-15
-2.849721534376e-16
-4.131874949414e-17
-5.124756840970e-16
-1.870450357031e-16
-1.818417275870e-16
-5.073261444431e-16
-6.162666173134e-16
-5.528626639355e-16
3.464619359116e-16
-4.328573546979e-16
7.281897614174e-17
3.287353251695e-16
2.330671936291e-16
2.829016421475e-16
3.876146732692e-17
2.406673369046e-16
-1.627717208006e-17
-2.064280915342e-16
3.121316150564e-17
-8.562123352472e-17
1.247972829253e-17
-2.846060686109e-17
1.896708950416e-17
-9.022930082379e-17
-2.265895541468e-17
9.270717262370e-18
-1.386734089148e-17
1.821009615409e-20
-7.851647779875e-18
-2.708544846121e-17
-2.686269662591e-17
-2.017519214667e-19
2.328478062918e-17
-4.334002827974e-18
4.810866686300e-17
9.795927981412e-18
4.469930155947e-17
-1.578323277496e-17
5.300468411005e-17
1.455090895204e-17
1.422170172227e-17
-1.568131446732e-17
-7.832533205899e-18
6.343676987611e-17
2.611983803602e-17
-7.620971147099e-18
-6.107724418790e-18
2.990533069818e-18
-2.478259171357e-17
-1.884170103693e-17
-2.945725213966e-17
-2.906722187708e-17
1.566189338764e-17
9.133052877786e-18
-2.827866950367e-17
-3.280594773047e-17
5.905957166199e-18
-2.337596902356e-17
-6.289978675275e-18
-1.335548052933e-17
-6.018666636922e-18
1.089310157073e-17
-1.622816913114e-17
8.924556484882e-18
-9.674772583822e-18
-8.780837736368e-18
1.666298887781e-17
-6.601604284920e-18
2.882083375282e-17
4.088687696112e-18
-3.866168909149e-17
-2.469117330902e-17
-8.444901327952e-18
-3.284626124875e-17
2.966705134352e-17
2.343125845790e-17
3.322484117956e-17
-5.823352607065e-18
-1.416923274293e-18
1.829654786572e-18
-3.836382838660e-18
-1.561788570167e-17
-1.206139878813e-17
-3.627883367576e-17
-2.139562112676e-17
3.423537884149e-17
-8.562010023948e-18
4.309830001946e-18
-7.595142830972e-18
2.479557477864e-17
1.279236246185e-17
2.291204074863e-17
2.900578589318e-17
-3.869553406253e-17
5.842819625727e-18
2.340073968932e-18
3.434586571128e-17
8.803079185841e-20
7.109601619601e-18
-7.634276121405e-18
SCALARS C double 1
LOOKUP_TABLE default
 3.190559220786e-06
 1.232327805837e-03
 3.548170320444e-03
 7.501219632750e-03
 1.375342981715e-02
 2.378001248181e-02
 7.352106048498e-02
 1.110726386735e-01
 1.148687487295e-01
 1.134377539948e-01
 1.111742780693e-01
 1.089725773409e-01
 1.068808142466e-01
 1.046380537967e-01
 1.033362577244e-01
 1.048801013073e-01
 1.057390980107e-01
 1.064254113336e-01
 1.070342723362e-01
 1.075301978599e-01
 1.078920015606e-01
 1.081844015838e-01
 1.083589792644e-01
 1.084969860789e-01
 1.085750344689e-01
 1.085971189783e-01
 1.086422201097e-01
 1.086230536361e-01
 1.086278250734e-01
 1.086920718368e-01
 1.086306576372e-01
 1.086319377080e-01
 1.086333814386e-01
 1.086415665416e-01
 1.086311595708e-01
 1.086358285616e-01
 1.086566916825e-01
 1.086323374091e-01
 1.086508838152e-01
 1.086327980314e-01
 1.086288182631e-01
 1.086501242106e-01
 1.086378125685e-01
 1.086417528195e-01
 1.086402775510e-01
 1.086190923252e-01
 1.086652386350e-01
 1.086411131614e-01
 1.086221297750e-01
 1.086637466060e-01
 1.085845452148e-01
 1.086724327139e-01
 1.086544370357e-01
 1.086110021844e-01
 1.086354421115e-01
 1.086449600958e-01
 1.086619662924e-01
 1.086347583659e-01
 1.086317158072e-01
 1.086572393791e-01
 1.086227457115e-01
 1.086560319489e-01
 1.086387272393e-01
 1.086184365884e-01
 1.086450142271e-01
 1.086450628738e-01
 1.086324812491e-01
 1.086518122316e-01
 1.086242704775e-01
 1.086549628505e-01
 1.086332384831e-01
 1.086351208452e-01
 1.086453048627e-01
 1.086417293794e-01
 1.086394305900e-01
 1.086363157117e-01
 1.086400022567e-01
 1.086402333414e-01
 1.086195864277e-01
 1.086592361425e-01
 1.086269359679e-01
 1.086488171050e-01
 1.086394727090e-01
 1.086406170946e-01
 1.086399721985e-01
 1.086476558414e-01
 1.086309067200e-01
 1.086385951739e-01
 1.086453906824e-01
 1.086334594072e-01
 1.086390536079e-01
 1.086413707518e-01
 1.086229254157e-01
 1.086902161445e-01
 1.086211013385e-01
 1.086154439997e-01
 1.086451979836e-01
 1.086400225945e-01
 1.086251425281e-01
 1.086786696588e-01
 1.086062855665e-01
SCALARS Ca double 1
LOOKUP_TABLE default
 3.190559220786e-06
 9.505992504634e-04
 2.710559868198e-03
 5.674642183671e-03
 1.031087116648e-02
 1.750924819204e-02
 4.539976447653e-02
 6.818858530832e-02
 7.524325046485e-02
 8.097583850809e-02
 8.767477056397e-02
 9.563998528787e-02
 1.055655265261e-01
 1.244479955709e-01
 1.452474170506e-01
 1.384599800162e-01
 1.320440609299e-01
 1.265880472805e-01
 1.221520179942e-01
 1.186187147268e-01
 1.158487443244e-01
 1.137705040409e-01
 1.121964393670e-01
 1.110768944387e-01
 1.102727599373e-01
 1.096908807034e-01
 1.093322532050e-01
 1.090494545043e-01
 1.088859820765e-01
 1.088452477378e-01
 1.087197551914e-01
 1.086827585639e-01
 1.086618164960e-01
 1.086571778573e-01
 1.086395723031e-01
 1.086402798598e-01
 1.086590049659e-01
 1.086335185564e-01
 1.086514765394e-01
 1.086330904564e-01
 1.086289601454e-01
 1.086501919330e-01
 1.086378443785e-01
 1.086417675275e-01
 1.086402842474e-01
 1.086190953282e-01
 1.086652399618e-01
 1.086411137392e-01
 1.086221300230e-01
 1.086637467110e-01
 1.085845452587e-01
 1.086724327320e-01
 1.086544370431e-01
 1.086110021873e-01
 1.086354421126e-01
 1.086449600962e-01
 1.086619662926e-01
 1.086347583659e-01
 1.086317158072e-01
 1.086572393791e-01
 1.086227457115e-01
 1.086560319489e-01
 1.086387272393e-01
 1.086184365884e-01
 1.086450142271e-01
 1.086450628738e-01
 1.086324812491e-01
 1.086518122316e-01
 1.086242704775e-01
 1.086549628505e-01
 1.086332384831e-01
 1.086351208452e-01
 1.086453048627e-01
 1.086417293794e-01
 1.086394305900e-01
 1.086363157117e-01
 1.086400022567e-01
 1.086402333414e-01
 1.086195864277e-01
 1.086592361425e-01
 1.086269359679e-01
 1.086488171050e-01
 1.086394727090e-01
 1.086406170946e-01
 1.086399721985e-01
 1.086476558414e-01
 1.086309067200e-01
 1.086385951739e-01
 1.086453906824e-01
 1.086334594072e-01
 1.086390536079e-01
 1.086413707518e-01
 1.086229254157e-01
 1.086902161445e-01
 1.086211013385e-01
 1.086154439997e-01
 1.086451979836e-01
 1.086400225945e-01
 1.086251425281e-01
 1.086786696588e-01
 1.086062855665e-01
SCALARS Cl double 1
LOOKUP_TABLE default
 1.276223688314e+00
 1.270856784553e+00
 1.261273394732e+00
 1.245832980943e+00
 1.222801156010e+00
 1.190528700312e+00
 1.147678323799e+00
 1.093469184849e+00
 1.027872367878e+00
 9.517157720883e-01
 8.667012930680e-01
 7.752864973946e-01
 6.804607272726e-01
 5.854491574114e-01
 4.933929498769e-01
 4.070584287503e-01
 3.286126752948e-01
 2.594981929268e-01
 2.004072005882e-01
 1.513453137345e-01
 1.117594797780e-01
 8.069985830898e-02
 5.698667038739e-02
 3.935928837123e-02
 2.659349949590e-02
 1.758153244564e-02
 1.137646168709e-02
 7.207136519691e-03
 4.471820707076e-03
 2.718759443976e-03
 1.620627267597e-03
 9.479679947441e-04
 5.448530428867e-04
 3.083908820632e-04
 1.725612114031e-04
 9.612047675809e-05
 5.395616487714e-05
 3.115044530488e-05
 1.904987714490e-05
 1.274884638512e-05
 9.527495214693e-06
 7.909943744133e-06
 7.111873958937e-06
 6.724837529318e-06
 6.540271050616e-06
 6.453694155575e-06
 6.413731480483e-06
 6.395573818741e-06
 6.387449864588e-06
 6.383869507246e-06
 6.382314804044e-06
 6.381649267084e-06
 6.381368443671e-06
 6.381251582398e-06
 6.381203567953e-06
 6.381184112312e-06
 6.381176323327e-06
 6.381173267525e-06
 6.381172072493e-06
 6.381171593535e-06
 6.381171441352e-06
 6.381171346272e-06
 6.381171338828e-06
 6.381171343088e-06
 6.381171321384e-06
 6.381171322083e-06
 6.381171329655e-06
 6.381171314420e-06
 6.381171337071e-06
 6.381171312349e-06
 6.381171328055e-06
 6.381171328878e-06
 6.381171320578e-06
 6.381171319647e-06
 6.381171323427e-06
 6.381171329137e-06
 6.381171325966e-06
 6.381171323001e-06
 6.381171340457e-06
 6.381171306336e-06
 6.381171332773e-06
 6.381171316697e-06
 6.381171322267e-06
 6.381171323312e-06
 6.381171322235e-06
 6.381171316562e-06
 6.381171329878e-06
 6.381171324360e-06
 6.381171319003e-06
 6.381171328521e-06
 6.381171323717e-06
 6.381171321270e-06
 6.381171335985e-06
 6.381171289848e-06
 6.381171338119e-06
 6.381171339025e-06
 6.381171319377e-06
 6.381171322540e-06
 6.381171335642e-06
 6.381171294815e-06
 6.381171348381e-06
SCALARS H double 1
LOOKUP_TABLE default
 3.542055048139e+04
 3.542025243962e+04
 3.542026078208e+04
 3.542027496671e+04
 3.542029748459e+04
 3.542033233446e+04
 3.542027886567e+04
 3.542017057219e+04
 3.542018866449e+04
 3.542023139810e+04
 3.542028260617e+04
 3.542033848567e+04
 3.542039684298e+04
 3.542045207992e+04
 3.542049563382e+04
 3.542055466271e+04
 3.542061018604e+04
 3.542065954506e+04
 3.542070171817e+04
 3.542073674007e+04
 3.542076503432e+04
 3.542078709089e+04
 3.542080399931e+04
 3.542081639359e+04
 3.542082539366e+04
 3.542083180234e+04
 3.542083605275e+04
 3.542083908458e+04
 3.542084098358e+04
 3.542084193878e+04
 3.542084294449e+04
 3.542084340253e+04
 3.542084365712e+04
 3.542084379523e+04
 3.542084394599e+04
 3.542084396522e+04
 3.542084390170e+04
 3.542084401874e+04
 3.542084393806e+04
 3.542084403096e+04
 3.542084403809e+04
 3.542084396214e+04
 3.542084400610e+04
 3.542084401320e+04
 3.542084403437e+04
 3.542084408462e+04
 3.542084388301e+04
 3.542084398573e+04
 3.542084408417e+04
 3.542084391438e+04
 3.542084424979e+04
 3.542084389153e+04