# vtk DataFile Version 3.0
Unstructured Grid from OpenGeoSys
ASCII
DATASET UNSTRUCTURED_GRID
FIELD TimesAndCycles 2
TIME 1 1 double
3.000000000000e+03
CYLCE 1 1 long
30
POINTS 101 double
0.000000000000e+00 0.000000000000e+00 0.000000000000e+00
5.000000000000e-03 0.000000000000e+00 0.000000000000e+00
1.000000000000e-02 0.000000000000e+00 0.000000000000e+00
1.500000000000e-02 0.000000000000e+00 0.000000000000e+00
2.000000000000e-02 0.000000000000e+00 0.000000000000e+00
2.500000000000e-02 0.000000000000e+00 0.000000000000e+00
3.000000000000e-02 0.000000000000e+00 0.000000000000e+00
3.500000000000e-02 0.000000000000e+00 0.000000000000e+00
4.000000000000e-02 0.000000000000e+00 0.000000000000e+00
4.500000000000e-02 0.000000000000e+00 0.000000000000e+00
5.000000000000e-02 0.000000000000e+00 0.000000000000e+00
5.500000000000e-02 0.000000000000e+00 0.000000000000e+00
6.000000000000e-02 0.000000000000e+00 0.000000000000e+00
6.500000000000e-02 0.000000000000e+00 0.000000000000e+00
7.000000000000e-02 0.000000000000e+00 0.000000000000e+00
7.500000000000e-02 0.000000000000e+00 0.000000000000e+00
8.000000000000e-02 0.000000000000e+00 0.000000000000e+00
8.500000000000e-02 0.000000000000e+00 0.000000000000e+00
9.000000000000e-02 0.000000000000e+00 0.000000000000e+00
9.500000000000e-02 0.000000000000e+00 0.000000000000e+00
1.000000000000e-01 0.000000000000e+00 0.000000000000e+00
1.050000000000e-01 0.000000000000e+00 0.000000000000e+00
1.100000000000e-01 0.000000000000e+00 0.000000000000e+00
1.150000000000e-01 0.000000000000e+00 0.000000000000e+00
1.200000000000e-01 0.000000000000e+00 0.000000000000e+00
1.250000000000e-01 0.000000000000e+00 0.000000000000e+00
1.300000000000e-01 0.000000000000e+00 0.000000000000e+00
1.350000000000e-01 0.000000000000e+00 0.000000000000e+00
1.400000000000e-01 0.000000000000e+00 0.000000000000e+00
1.450000000000e-01 0.000000000000e+00 0.000000000000e+00
1.500000000000e-01 0.000000000000e+00 0.000000000000e+00
1.550000000000e-01 0.000000000000e+00 0.000000000000e+00
1.600000000000e-01 0.000000000000e+00 0.000000000000e+00
1.650000000000e-01 0.000000000000e+00 0.000000000000e+00
1.700000000000e-01 0.000000000000e+00 0.000000000000e+00
1.750000000000e-01 0.000000000000e+00 0.000000000000e+00
1.800000000000e-01 0.000000000000e+00 0.000000000000e+00
1.850000000000e-01 0.000000000000e+00 0.000000000000e+00
1.900000000000e-01 0.000000000000e+00 0.000000000000e+00
1.950000000000e-01 0.000000000000e+00 0.000000000000e+00
2.000000000000e-01 0.000000000000e+00 0.000000000000e+00
2.050000000000e-01 0.000000000000e+00 0.000000000000e+00
2.100000000000e-01 0.000000000000e+00 0.000000000000e+00
2.150000000000e-01 0.000000000000e+00 0.000000000000e+00
2.200000000000e-01 0.000000000000e+00 0.000000000000e+00
2.250000000000e-01 0.000000000000e+00 0.000000000000e+00
2.300000000000e-01 0.000000000000e+00 0.000000000000e+00
2.350000000000e-01 0.000000000000e+00 0.000000000000e+00
2.400000000000e-01 0.000000000000e+00 0.000000000000e+00
2.450000000000e-01 0.000000000000e+00 0.000000000000e+00
2.500000000000e-01 0.000000000000e+00 0.000000000000e+00
2.550000000000e-01 0.000000000000e+00 0.000000000000e+00
2.600000000000e-01 0.000000000000e+00 0.000000000000e+00
2.650000000000e-01 0.000000000000e+00 0.000000000000e+00
2.700000000000e-01 0.000000000000e+00 0.000000000000e+00
2.750000000000e-01 0.000000000000e+00 0.000000000000e+00
2.800000000000e-01 0.000000000000e+00 0.000000000000e+00
2.850000000000e-01 0.000000000000e+00 0.000000000000e+00
2.900000000000e-01 0.000000000000e+00 0.000000000000e+00
2.950000000000e-01 0.000000000000e+00 0.000000000000e+00
3.000000000000e-01 0.000000000000e+00 0.000000000000e+00
3.050000000000e-01 0.000000000000e+00 0.000000000000e+00
3.100000000000e-01 0.000000000000e+00 0.000000000000e+00
3.150000000000e-01 0.000000000000e+00 0.000000000000e+00
3.200000000000e-01 0.000000000000e+00 0.000000000000e+00
3.250000000000e-01 0.000000000000e+00 0.000000000000e+00
3.300000000000e-01 0.000000000000e+00 0.000000000000e+00
3.350000000000e-01 0.000000000000e+00 0.000000000000e+00
3.400000000000e-01 0.000000000000e+00 0.000000000000e+00
3.450000000000e-01 0.000000000000e+00 0.000000000000e+00
3.500000000000e-01 0.000000000000e+00 0.000000000000e+00
3.550000000000e-01 0.000000000000e+00 0.000000000000e+00
3.600000000000e-01 0.000000000000e+00 0.000000000000e+00
3.650000000000e-01 0.000000000000e+00 0.000000000000e+00
3.700000000000e-01 0.000000000000e+00 0.000000000000e+00
3.750000000000e-01 0.000000000000e+00 0.000000000000e+00
3.800000000000e-01 0.000000000000e+00 0.000000000000e+00
3.850000000000e-01 0.000000000000e+00 0.000000000000e+00
3.900000000000e-01 0.000000000000e+00 0.000000000000e+00
3.950000000000e-01 0.000000000000e+00 0.000000000000e+00
4.000000000000e-01 0.000000000000e+00 0.000000000000e+00
4.050000000000e-01 0.000000000000e+00 0.000000000000e+00
4.100000000000e-01 0.000000000000e+00 0.000000000000e+00
4.150000000000e-01 0.000000000000e+00 0.000000000000e+00
4.200000000000e-01 0.000000000000e+00 0.000000000000e+00
4.250000000000e-01 0.000000000000e+00 0.000000000000e+00
4.300000000000e-01 0.000000000000e+00 0.000000000000e+00
4.350000000000e-01 0.000000000000e+00 0.000000000000e+00
4.400000000000e-01 0.000000000000e+00 0.000000000000e+00
4.450000000000e-01 0.000000000000e+00 0.000000000000e+00
4.500000000000e-01 0.000000000000e+00 0.000000000000e+00
4.550000000000e-01 0.000000000000e+00 0.000000000000e+00
4.600000000000e-01 0.000000000000e+00 0.000000000000e+00
4.650000000000e-01 0.000000000000e+00 0.000000000000e+00
4.700000000000e-01 0.000000000000e+00 0.000000000000e+00
4.750000000000e-01 0.000000000000e+00 0.000000000000e+00
4.800000000000e-01 0.000000000000e+00 0.000000000000e+00
4.850000000000e-01 0.000000000000e+00 0.000000000000e+00
4.900000000000e-01 0.000000000000e+00 0.000000000000e+00
4.950000000000e-01 0.000000000000e+00 0.000000000000e+00
5.000000000000e-01 0.000000000000e+00 0.000000000000e+00
CELLS 100 300
2 0 1
2 2 3
2 4 5
2 6 7
2 8 9
2 10 11
2 12 13
2 14 15
2 16 17
2 18 19
2 20 21
2 22 23
2 24 25
2 26 27
2 28 29
2 30 31
2 32 33
2 34 35
2 36 37
2 38 39
2 40 41
2 42 43
2 44 45
2 46 47
2 48 49
2 50 51
2 52 53
2 54 55
2 56 57
2 58 59
2 60 61
2 62 63
2 64 65
2 66 67
2 68 69
2 70 71
2 72 73
2 74 75
2 76 77
2 78 79
2 80 81
2 82 83
2 84 85
2 86 87
2 88 89
2 90 91
2 92 93
2 94 95
2 96 97
2 98 99
2 1 2
2 3 4
2 5 6
2 7 8
2 9 10
2 11 12
2 13 14
2 15 16
2 17 18
2 19 20
2 21 22
2 23 24
2 25 26
2 27 28
2 29 30
2 31 32
2 33 34
2 35 36
2 37 38
2 39 40
2 41 42
2 43 44
2 45 46
2 47 48
2 49 50
2 51 52
2 53 54
2 55 56
2 57 58
2 59 60
2 61 62
2 63 64
2 65 66
2 67 68
2 69 70
2 71 72
2 73 74
2 75 76
2 77 78
2 79 80
2 81 82
2 83 84
2 85 86
2 87 88
2 89 90
2 91 92
2 93 94
2 95 96
2 97 98
2 99 100

CELL_TYPES 100
3
3
3
3
3
3
3
3
3
3
3
3
3
3
3
3
3
3
3
3
3
3
3
3
3
3
3
3
3
3
3
3
3
3
3
3
3
3
3
3
3
3
3
3
3
3
3
3
3
3
3
3
3
3
3
3
3
3
3
3
3
3
3
3
3
3
3
3
3
3
3
3
3
3
3
3
3
3
3
3
3
3
3
3
3
3
3
3
3
3
3
3
3
3
3
3
3
3
3
3

POINT_DATA 101
SCALARS 1-C double 1
LOOKUP_TABLE default
9.970358361137e-06
1.581095448312e-02
4.313052280054e-02
7.892649947262e-02
1.243840801300e-01
1.175112441051e-01
1.116907211765e-01
1.088117979071e-01
1.084330564588e-01
1.157794686964e-01
1.184968292698e-01
1.204395765873e-01
1.216424478020e-01
1.222652641700e-01
1.225199437831e-01
1.225777752638e-01
1.225480051549e-01
1.224942843702e-01
1.224670433571e-01
1.224319531713e-01
1.224114553449e-01
1.224050145271e-01
1.223905389448e-01
1.223983426249e-01
1.223938094507e-01
1.223818819175e-01
1.223944196045e-01
1.223892696356e-01
1.223940792421e-01
1.223425450228e-01
1.223844119731e-01
1.223875922284e-01
1.223903950682e-01
1.224020359936e-01
1.223847174699e-01
1.223933962669e-01
1.224012314859e-01
1.223939677311e-01
1.223940690121e-01
1.223927663657e-01
1.223921847461e-01
1.223976636278e-01
1.223940092256e-01
1.223969602909e-01
1.223870841734e-01
1.223978483821e-01
1.224006066254e-01
1.223947638879e-01
1.223894729522e-01
1.223879515276e-01
1.223944026719e-01
1.223923416738e-01
1.223939064481e-01
1.223940569575e-01
1.223878840978e-01
1.223908946027e-01
1.223044309941e-01
1.223915748453e-01
1.223880462160e-01
1.223972827451e-01
1.223990689279e-01
1.223992423451e-01
1.224028206499e-01
1.224025866065e-01
1.223936175218e-01
1.223965646673e-01
1.223916225229e-01
1.223977209814e-01
1.223994667154e-01
1.223954224776e-01
1.223937845320e-01
1.223917067953e-01
1.223922911837e-01
1.223431355421e-01
1.223925679803e-01
1.223889857452e-01
1.223911143707e-01
1.223977605432e-01
1.224041419480e-01
1.223889500129e-01
1.223937380826e-01
1.223970941434e-01
1.223938960551e-01
1.223930315723e-01
1.223942411162e-01
1.223943459096e-01
1.223905138620e-01
1.223835884782e-01
1.223945769963e-01
1.223913260085e-01
1.223958835153e-01
1.223854967241e-01
1.223889956957e-01
1.223937511299e-01
1.223939326687e-01
1.223957374418e-01
1.223878590782e-01
1.223964706880e-01
1.223988968446e-01
1.224007884336e-01
1.223809161212e-01
SCALARS 2-Ca double 1
LOOKUP_TABLE default
9.970358361137e-06
1.357657020196e-02
3.698713601969e-02
6.964501110891e-02
1.127224980283e-01
1.358469608638e-01
1.653207051822e-01
1.943381517084e-01
2.297746836369e-01
1.911260089562e-01
1.698609875539e-01
1.539932792440e-01
1.426656459237e-01
1.349244942274e-01
1.298538855466e-01
1.266692058862e-01
1.247481100819e-01
1.236358683141e-01
1.230392601966e-01
1.227093532355e-01
1.225416683056e-01
1.224642674400e-01
1.224167070357e-01
1.224095713324e-01
1.223984960590e-01
1.223837865890e-01
1.223951741061e-01
1.223895612501e-01
1.223941893152e-01
1.223425856368e-01
1.223844266344e-01
1.223875974109e-01
1.223903968634e-01
1.224020366035e-01
1.223847176733e-01
1.223933963335e-01
1.224012315073e-01
1.223939677379e-01
1.223940690142e-01
1.223927663663e-01
1.223921847463e-01
1.223976636279e-01
1.223940092256e-01
1.223969602909e-01
1.223870841734e-01
1.223978483821e-01
1.224006066254e-01
1.223947638879e-01
1.223894729522e-01
1.223879515276e-01
1.223944026719e-01
1.223923416738e-01
1.223939064481e-01
1.223940569575e-01
1.223878840978e-01
1.223908946027e-01
1.223044309941e-01
1.223915748453e-01
1.223880462160e-01
1.223972827451e-01
1.223990689279e-01
1.223992423451e-01
1.224028206499e-01
1.224025866065e-01
1.223936175218e-01
1.223965646673e-01
1.223916225229e-01
1.223977209814e-01
1.223994667154e-01
1.223954224776e-01
1.223937845320e-01
1.223917067953e-01
1.223922911837e-01
1.223431355421e-01
1.223925679803e-01
1.223889857452e-01
1.223911143707e-01
1.223977605432e-01
1.224041419480e-01
1.223889500129e-01
1.223937380826e-01
1.223970941434e-01
1.223938960551e-01
1.223930315723e-01
1.223942411162e-01
1.223943459096e-01
1.223905138620e-01
1.223835884782e-01
1.223945769963e-01
1.223913260085e-01
1.223958835153e-01
1.223854967241e-01
1.223889956957e-01
1.223937511299e-01
1.223939326687e-01
1.223957374418e-01
1.223878590782e-01
1.223964706880e-01
1.223988968446e-01
1.224007884336e-01
1.223809161212e-01
SCALARS 3-Cl double 1
LOOKUP_TABLE default
3.988143344455e+00
3.886024821501e+00
3.714094229508e+00
3.463085613443e+00
3.134742275346e+00
2.743258767918e+00
2.313334743964e+00
1.875316026471e+00
1.459060833777e+00
1.088492592695e+00
7.783222134468e-01
5.334509078934e-01
3.505890698972e-01
2.210818912404e-01
1.338837479791e-01
7.793960251971e-02
4.366503326214e-02
2.357193677163e-02
1.227857191214e-02
6.181718318138e-03
3.014622201011e-03
1.428919002950e-03
6.624642639181e-04
3.042672561904e-04
1.421741727760e-04
7.104939421993e-05
4.074749997241e-05
2.819696394250e-05
2.313727936858e-05
2.114956882248e-05
2.038779326247e-05
2.010269292898e-05
1.999839022425e-05
1.996105405360e-05
1.994796555486e-05
1.994346833463e-05
1.994195252208e-05
1.994145095513e-05
1.994128790937e-05
1.994123580026e-05
1.994121942198e-05
1.994121435172e-05
1.994121280486e-05
1.994121234261e-05
1.994121220170e-05
1.994121216595e-05
1.994121215468e-05
1.994121215327e-05
1.994121214714e-05
1.994121214328e-05
1.994121214975e-05
1.994121214648e-05
1.994121214337e-05
1.994121214735e-05
1.994121214536e-05
1.994121214725e-05
1.994121210793e-05
1.994121214645e-05
1.994121214599e-05
1.994121214958e-05
1.994121215158e-05
1.994121215009e-05
1.994121215186e-05
1.994121215253e-05
1.994121214829e-05
1.994121214889e-05
1.994121213917e-05
1.994121215325e-05
1.994121215155e-05
1.994121214898e-05
1.994121214598e-05
1.994121214931e-05
1.994121214840e-05
1.994121212387e-05
1.994121214854e-05
1.994121214314e-05
1.994121214775e-05
1.994121214618e-05
1.994121215192e-05
1.994121214445e-05
1.994121214949e-05
1.994121214868e-05
1.994121214657e-05
1.994121214816e-05
1.994121214855e-05
1.994121214862e-05
1.994121214687e-05
1.994121214336e-05
1.994121214963e-05
1.994121214535e-05
1.994121214780e-05
1.994121214594e-05
1.994121214733e-05
1.994121214717e-05
1.994121215019e-05
1.994121214746e-05
1.994121214344e-05
1.994121214733e-05
1.994121215102e-05
1.994121215140e-05
1.994121214127e-05
SCALARS 4-H double 1
LOOKUP_TABLE default
2.701109245634e-04
2.868937289388e-02
6.913926561910e-02
1.123726737034e-01
1.581068251422e-01
1.518006543746e-01
1.463535403313e-01
1.437828625465e-01
1.435748525098e-01
1.524762113401e-01
1.566472453720e-01
1.599901303287e-01
1.624022753358e-01
1.640074603033e-01
1.649883529431e-01
1.655454384298e-01
1.658455786926e-01
1.659844826646e-01
1.660576926269e-01
1.660876440017e-01
1.660939768930e-01
1.660874514140e-01
1.661060930076e-01
1.661152218543e-01
1.660969650978e-01
1.660988560150e-01
1.660944948905e-01
1.661116022206e-01
1.661041524732e-01
1.660801053343e-01
1.660978400239e-01
1.660972796125e-01
1.660918048033e-01
1.661003942036e-01
1.661058780542e-01
1.660929665356e-01
1.661089401356e-01
1.661015099050e-01
1.661082431543e-01
1.661155317584e-01
1.660908281690e-01
1.661164503452e-01
1.661114025968e-01
1.661123447470e-01
1.660935178024e-01
1.661034178021e-01
1.661059366151e-01
1.661007908721e-01
1.660905995757e-01
1.660964124937e-01
1.661000364503e-01
1.661025781523e-01
1.661110533465e-01
1.661046198573e-01
1.660982740349e-01
1.660926068789e-01
1.660592239274e-01
1.660927143474e-01
1.661082525331e-01
1.660940405889e-01
1.661067788449e-01
1.661079385376e-01
1.661117542446e-01
1.661128676984e-01
1.660942411448e-01
1.661036850017e-01
1.661147613838e-01
1.661067177992e-01
1.661162923971e-01
1.661156703798e-01
1.661135278247e-01
1.660967549311e-01
1.661007151094e-01
1.660785366400e-01
1.661044892993e-01
1.661047267628e-01
1.661132716902e-01
1.661046955637e-01
1.661098530809e-01
1.660899823999e-01
1.661119535234e-01
1.660953852249e-01
1.661058003053e-01
1.660991207024e-01
1.661130538953e-01
1.661054411363e-01
1.660953826250e-01
1.661024804506e-01
1.661105126407e-01
1.661123502625e-01
1.661050455381e-01
1.660939303322e-01
1.660972243920e-01
1.661102370139e-01
1.661042225739e-01
1.661082129366e-01
1.661021413514e-01
1.660937909547e-01
1.661072477379e-01
1.660971776873e-01
1.661005099146e-01
SCALARS 5-Mg double 1
LOOKUP_TABLE default
1.994071672227e+00
1.945246795032e+00
1.863190501535e+00
1.740824295085e+00
1.579032719775e+00
1.353293667200e+00
1.103037387976e+00
8.521316594341e-01
6.081887897104e-01
4.688997560876e-01
3.377969484393e-01
2.331717512901e-01
1.542713368269e-01
9.788171556285e-02
5.960793222599e-02
3.487837063750e-02
1.963241170409e-02
1.064438444185e-02
5.567069116506e-03
2.813459094838e-03
1.377098139872e-03
6.552065885549e-04
3.050640410901e-04
1.409049205740e-04
6.640047814442e-05
3.362002558641e-05
1.961924836888e-05
1.380686743241e-05
1.145856656031e-05
1.053417051165e-05
1.017923536031e-05
1.004616397210e-05
9.997399853069e-06
9.979917106188e-06
9.973779401738e-06
9.971667561514e-06
9.970954821945e-06
9.970718690794e-06
9.970641840462e-06
9.970617251610e-06
9.970609515003e-06
9.970607117475e-06
9.970606385278e-06
9.970606166331e-06
9.970606099428e-06
9.970606082573e-06
9.970606077229e-06
9.970606076604e-06
9.970606073564e-06
9.970606071638e-06
9.970606074875e-06
9.970606073240e-06
9.970606071686e-06
9.970606073676e-06
9.970606072681e-06
9.970606073624e-06
9.970606053965e-06
9.970606073225e-06
9.970606072995e-06
9.970606074791e-06
9.970606075788e-06
9.970606075044e-06
9.970606075931e-06
9.970606076267e-06
9.970606074143e-06
9.970606074444e-06
9.970606069587e-06
9.970606076624e-06
9.970606075776e-06
9.970606074490e-06
9.970606072988e-06
9.970606074655e-06
9.970606074201e-06
9.970606061934e-06
9.970606074272e-06
9.970606071570e-06
9.970606073875e-06
9.970606073092e-06
9.970606075959e-06
9.970606072224e-06
9.970606074743e-06
9.970606074342e-06
9.970606073287e-06
9.970606074082e-06
9.970606074275e-06
9.970606074308e-06
9.970606073434e-06
9.970606071679e-06
9.970606074815e-06
9.970606072677e-06
9.970606073902e-06
9.970606072969e-06
9.970606073666e-06
9.970606073584e-06
9.970606075097e-06
9.970606073731e-06
9.970606071721e-06
9.970606073667e-06
9.970606075509e-06
9.970606075701e-06
9.970606070634e-06
SCALARS 6-O double 1
LOOKUP_TABLE default
2.010568337471e-02
8.631353744748e-02
1.962339614789e-01
3.365338561379e-01
5.105490811773e-01
5.043942161751e-01
5.035558172193e-01
5.133449081448e-01
5.308366944982e-01
5.740029292844e-01
5.981990195879e-01
6.167187323800e-01
6.297629425171e-01
6.382624250222e-01
6.434413056224e-01
6.464111771667e-01
6.480145302812e-01
6.488271629635e-01
6.492903407422e-01
6.494744594660e-01
6.495586825650e-01
6.496074705079e-01
6.496078634336e-01
6.496519620364e-01
6.496365302879e-01
6.496048946566e-01
6.496416911906e-01
6.496353598636e-01
6.496462916198e-01
6.494797546081e-01
6.496142573290e-01
6.496235307149e-01
6.496292065804e-01
6.496684257655e-01
6.496192126102e-01
6.496387935126e-01
6.496702860312e-01
6.496447796135e-01
6.496484501093e-01
6.496481864745e-01
6.496340898959e-01
6.496633375794e-01
6.496498504668e-01
6.496591747478e-01
6.496201329035e-01
6.496573755625e-01
6.496669097250e-01
6.496468086069e-01
6.496258401237e-01
6.496241822797e-01
6.496453477688e-01
6.496404356025e-01
6.496493675047e-01
6.496466023294e-01
6.496249108200e-01
6.496311087842e-01
6.493550260752e-01
6.496332032137e-01
6.496303864299e-01
6.496509900785e-01
6.496627177716e-01
6.496638178318e-01
6.496764606571e-01
6.496763152274e-01
6.496400946896e-01
6.496536580419e-01
6.496443697115e-01
6.496586434449e-01
6.496686678964e-01
6.496562241451e-01
6.496502389761e-01
6.496356193865e-01
6.496393525855e-01
6.494807961990e-01
6.496420701034e-01
6.496314420623e-01
6.496421004781e-01
6.496577509264e-01
6.496794739358e-01
6.496239627349e-01
6.496493125673e-01
6.496510965405e-01
6.496467098144e-01
6.496407765972e-01
6.496513718273e-01
6.496478798547e-01
6.496313544156e-01
6.496141271468e-01
6.496511088575e-01
6.496422746731e-01
6.496522948646e-01
6.496155768409e-01
6.496277207998e-01
6.496484934149e-01
6.496460308060e-01
6.496534403120e-01
6.496267694142e-01
6.496484290440e-01
6.496624359576e-01
6.496630756819e-01
6.496051247587e-01
SCALARS 7-Sn double 1
LOOKUP_TABLE default
0.000000000000e+00
0.000000000000e+00
0.000000000000e+00
0.000000000000e+00
0.000000000000e+00
0.000000000000e+00
0.000000000000e+00
0.000000000000e+00
0.000000000000e+00
0.000000000000e+00
0.000000000000e+00
0.000000000000e+00
0.000000000000e+00
0.000000000000e+00
0.000000000000e+00
0.000000000000e+00
0.000000000000e+00
0.000000000000e+00
0.000000000000e+00
0.000000000000e+00
0.000000000000e+00
0.000000000000e+00
0.000000000000e+00
0.000000000000e+00
0.000000000000e+00
0.000000000000e+00
0.000000000000e+00
0.000000000000e+00
0.000000000000e+00
0.000000000000e+00
0.000000000000e+00
0.000000000000e+00
0.000000000000e+00
0.000000000000e+00
0.000000000000e+00
0.000000000000e+00
0.000000000000e+00
0.000000000000e+00
0.000000000000e+00
0.000000000000e+00
0.000000000000e+00
0.000000000000e+00
0.000000000000e+00
0.000000000000e+00
0.000000000000e+00
0.000000000000e+00
0.000000000000e+00
0.000000000000e+00
0.000000000000e+00
0.000000000000e+00
0.000000000000e+00
0.000000000000e+00
0.000000000000e+00
0.000000000000e+00
0.000000000000e+00
0.000000000000e+00
0.000000000000e+00
0.000000000000e+00
0.000000000000e+00
0.000000000000e+00
0.000000000000e+00
0.000000000000e+00
0.000000000000e+00
0.000000000000e+00
0.000000000000e+00
0.000000000000e+00
0.000000000000e+00
0.000000000000e+00
0.000000000000e+00
0.000000000000e+00
0.000000000000e+00
0.000000000000e+00
0.000000000000e+00
0.000000000000e+00
0.000000000000e+00
0.000000000000e+00
0.000000000000e+00
0.000000000000e+00
0.000000000000e+00
0.000000000000e+00
0.000000000000e+00
0.000000000000e+00
0.000000000000e+00
0.000000000000e+00
0.000000000000e+00
0.000000000000e+00
0.000000000000e+00
0.000000000000e+00
0.000000000000e+00
0.000000000000e+00
0.000000000000e+00
0.000000000000e+00
0.000000000000e+00
0.000000000000e+00
0.000000000000e+00
0.000000000000e+00
0.000000000000e+00
0.000000000000e+00
0.000000000000e+00
0.000000000000e+00
0.000000000000e+00
SCALARS 8-Zz double 1
LOOKUP_TABLE default
1.035722930241e-15
-3.832313155199e-16
4.332183561328e-16
2.754693083845e-16
-7.017279043194e-16
1.043471401219e-16
8.506652500306e-16
5.803962246395e-17
1.352059140008e-16
-1.103501168147e-16
1.708601024546e-16
-1.426170112988e-17
-1.498294416434e-17
2.934244904324e-17
8.940672369646e-17
-3.637880808252e-17
-4.039729078433e-18
6.013163875351e-19
2.870587134128e-17
-2.966038369001e-18
1.305187167943e-17
8.359859578479e-18
2.073423287630e-17
2.857354122353e-17
3.365075510343e-17
-4.083506708875e-18
5.035474733583e-18
1.595149219483e-17
3.038651871584e-17
-4.688180004041e-19
-2.378332029630e-17
-9.923582565616e-19
-2.129310499156e-17
4.008045178137e-18
4.545350308366e-17
-1.332445593179e-17
5.101356043371e-18
-1.025110371533e-17
9.908315539869e-18
3.396612077010e-18
-1.469494959300e-17
-4.459097613605e-18
-2.311636785459e-17
-1.541771260538e-17
-2.587407841460e-17
4.953590612408e-18
3.922834814287e-17
-3.453055714347e-17
-3.127047476878e-18
4.082403069416e-19
3.240155477678e-18
1.191973405254e-17
-1.953209065016e-17
-6.588360560359e-18
1.311510118860e-17
-9.708065782649e-18
5.824637125707e-17
1.190612245862e-17
3.450385514104e-17
2.574138083619e-18
-9.917727134103e-18
5.281617591926e-18
-7.209312602020e-18
1.255354653796e-17
-5.047345020755e-17
6.961805510781e-18
-1.554817227412e-18
-1.800458856192e-17
-4.283414630888e-17
3.440832880539e-17
1.303406008864e-17
-1.851681647135e-18
3.769198619866e-18
-3.719651209733e-17
-1.333710184386e-17
-1.000791922652e-17
2.103595638761e-17
-1.092599624489e-17
5.927094973891e-18
2.155255294583e-17
-3.131216790810e-18
-1.004159565405e-17
1.438726336596e-17
-8.099216068666e-18
-1.661715705539e-17
-2.500465366020e-17
2.599383894766e-19
-2.585802961116e-18
2.576360694563e-17
3.420245352377e-17
-3.305906493775e-17
1.648145504788e-17
3.561122210280e-17
-3.905682370839e-18
-1.006055683500e-17
-2.240145296449e-17
-5.142972546358e-19
4.417798396386e-17
2.393934770738e-17
-1.673187453728e-17
2.476421293808e-17
SCALARS C double 1
LOOKUP_TABLE default
 3.190559220786e-06
 5.059532871469e-03
 1.380184214090e-02
 2.525661679300e-02
 9.368563738321e-02
 1.100290464641e-01
 1.098100761315e-01
 1.077819604500e-01
 1.044409164314e-01
 1.060581746741e-01
 1.072941765951e-01
 1.079383211718e-01
 1.083364448447e-01
 1.085546262951e-01
 1.086489749380e-01
 1.086916369728e-01
 1.086846109000e-01
 1.086631942159e-01
 1.086685175387e-01
 1.086548888544e-01
 1.086373955539e-01
 1.086449943901e-01
 1.086377881817e-01
 1.086401413838e-01
 1.086451453207e-01
 1.086344547740e-01
 1.086434638432e-01
 1.086351504742e-01
 1.086301617715e-01
 1.086639524675e-01
 1.086392425988e-01
 1.086318503925e-01
 1.086303384102e-01
 1.086386202913e-01
 1.086469230785e-01
 1.086305834254e-01
 1.086479554721e-01
 1.086335925168e-01
 1.086533940043e-01
 1.086225772760e-01
 1.086336191871e-01
 1.086594448887e-01
 1.086313042473e-01
 1.086418459841e-01
 1.086320102618e-01
 1.086371871282e-01
 1.086621199915e-01
 1.086322826948e-01
 1.086249046506e-01
 1.086412284711e-01
 1.086419711335e-01
 1.086424336652e-01
 1.086476937748e-01
 1.086001693307e-01
 1.086675777866e-01
 1.086394712163e-01
 1.086415551381e-01
 1.086367306679e-01
 1.086366208757e-01
 1.086546456761e-01
 1.086326448449e-01
 1.086358936539e-01
 1.086454975682e-01
 1.086241810478e-01
 1.086481589431e-01
 1.086433379212e-01
 1.086312849573e-01
 1.086466710253e-01
 1.086379496338e-01
 1.086419468390e-01
 1.086351064575e-01
 1.086371150124e-01
 1.086468246634e-01
 1.086383691003e-01
 1.086388438987e-01
 1.086361889988e-01
 1.086403162324e-01
 1.086435678990e-01
 1.086200109996e-01
 1.086619703186e-01
 1.086216626177e-01
 1.086481374830e-01
 1.086446115370e-01
 1.086356997714e-01
 1.086416781593e-01
 1.086407476054e-01
 1.086420652360e-01
 1.086301977321e-01
 1.086473948568e-01
 1.086336092793e-01
 1.086429629311e-01
 1.086388604265e-01
 1.086339376333e-01
 1.086528667908e-01
 1.086420379045e-01
 1.086231084639e-01
 1.086425898014e-01
 1.086437129463e-01
 1.086338697626e-01
 1.086447238233e-01
 1.086389895460e-01
SCALARS Ca double 1
LOOKUP_TABLE default
 3.190559220786e-06
 4.344526024154e-03
 1.183594771036e-02
 2.228652441037e-02
 6.301256526781e-02
 7.968370567192e-02
 8.993707724829e-02
 9.866921522845e-02
 1.295185306530e-01
 1.301690062654e-01
 1.237306647679e-01
 1.186754782452e-01
 1.150638508297e-01
 1.126055694188e-01
 1.109958302189e-01
 1.100008913745e-01
 1.093886426495e-01
 1.090285001301e-01
 1.088516264519e-01
 1.087436566445e-01
 1.086790635932e-01
 1.086639552730e-01
 1.086461619490e-01
 1.086437345609e-01
 1.086466450314e-01
 1.086350642673e-01
 1.086437052831e-01
 1.086352437906e-01
 1.086301969948e-01
 1.086639654639e-01
 1.086392472904e-01
 1.086318520509e-01
 1.086303389847e-01
 1.086386204865e-01
 1.086469231436e-01
 1.086305834467e-01
 1.086479554790e-01
 1.086335925190e-01
 1.086533940049e-01
 1.086225772762e-01
 1.086336191871e-01
 1.086594448887e-01
 1.086313042473e-01
 1.086418459841e-01
 1.086320102618e-01
 1.086371871282e-01
 1.086621199915e-01
 1.086322826948e-01
 1.086249046506e-01
 1.086412284711e-01
 1.086419711335e-01
 1.086424336652e-01
 1.086476937748e-01
 1.086001693307e-01
 1.086675777866e-01
 1.086394712163e-01
 1.086415551381e-01
 1.086367306679e-01
 1.086366208757e-01
 1.086546456761e-01
 1.086326448449e-01
 1.086358936539e-01
 1.086454975682e-01
 1.086241810478e-01
 1.086481589431e-01
 1.086433379212e-01
 1.086312849573e-01
 1.086466710253e-01
 1.086379496338e-01
 1.086419468390e-01
 1.086351064575e-01
 1.086371150124e-01
 1.086468246634e-01
 1.086383691003e-01
 1.086388438987e-01
 1.086361889988e-01
 1.086403162324e-01
 1.086435678990e-01
 1.086200109996e-01
 1.086619703186e-01
 1.086216626177e-01
 1.086481374830e-01
 1.086446115370e-01
 1.086356997714e-01
 1.086416781593e-01
 1.086407476054e-01
 1.086420652360e-01
 1.086301977321e-01
 1.086473948568e-01
 1.086336092793e-01
 1.086429629311e-01
 1.086388604265e-01
 1.086339376333e-01
 1.086528667908e-01
 1.086420379045e-01
 1.086231084639e-01
 1.086425898014e-01
 1.086437129463e-01
 1.086338697626e-01
 1.086447238233e-01
 1.086389895460e-01
SCALARS Cl double 1
LOOKUP_TABLE default
 1.276223688314e+00
 1.243534686329e+00
 1.188516598539e+00
 1.108193405821e+00
 1.003117529844e+00
 8.778411695665e-01
 7.402656159100e-01
 6.000999775665e-01
 4.668984305533e-01
 3.483167442119e-01
 2.490624646311e-01
 1.707038489198e-01
 1.121882119683e-01
 7.074602191691e-02
 4.284268829825e-02
 2.494060808674e-02
 1.397277438124e-02
 7.543000194737e-03
 3.929132810407e-03
 1.978144726359e-03
 9.646766011520e-04
 4.572528939407e-04
 2.119880142076e-04
 9.736526925665e-05
 4.549561716459e-05
 2.273574713787e-05
 1.303916613942e-05
 9.023005043385e-06
 7.403910187492e-06
 6.767844423821e-06
 6.524076907214e-06
 6.432845043584e-06
 6.399468266464e-06
 6.387520719500e-06
 6.383332400571e-06
 6.381893307916e-06
 6.381408238210e-06
 6.381247746069e-06
 6.381195557001e-06
 6.381178904521e-06
 6.381173655215e-06
 6.381172015006e-06
 6.381171539878e-06
 6.381171384888e-06
 6.381171344715e-06
 6.381171331998e-06
 6.381171310679e-06
 6.381171330826e-06
 6.381171333053e-06
 6.381171319435e-06
 6.381171322479e-06
 6.381171320606e-06
 6.381171316106e-06
 6.381171352417e-06
 6.381171300678e-06
 6.381171322692e-06
 6.381171288198e-06
 6.381171324616e-06
 6.381171323718e-06
 6.381171313769e-06
 6.381171331032e-06
 6.381171328204e-06
 6.381171322541e-06
 6.381171338401e-06
 6.381171317268e-06
 6.381171321706e-06
 6.381171326310e-06
 6.381171320918e-06
 6.381171327211e-06
 6.381171322490e-06
 6.381171326181e-06
 6.381171325279e-06
 6.381171317975e-06
 6.381171304767e-06
 6.381171323963e-06
 6.381171323345e-06
 6.381171322282e-06
 6.381171320953e-06
 6.381171341642e-06
 6.381171304767e-06
 6.381171337195e-06
 6.381171318230e-06
 6.381171319399e-06
 6.381171326267e-06
 6.381171322273e-06
 6.381171323003e-06
 6.381171320571e-06
 6.381171326556e-06
 6.381171318487e-06
 6.381171326505e-06
 6.381171321475e-06
 6.381171321451e-06
 6.381171326347e-06
 6.381171313474e-06
 6.381171322461e-06
 6.381171335954e-06
 6.381171318462e-06
 6.381171320910e-06
 6.381171329911e-06
 6.381171322485e-06
 6.381171318782e-06
SCALARS H double 1
LOOKUP_TABLE default
 3.542055048139e+04
 3.542027336933e+04
 3.542031861565e+04
 3.542038551139e+04
 3.542028315936e+04
 3.542029057719e+04
 3.542036616580e+04
 3.542045542657e+04
 3.542052693812e+04
 3.542060239977e+04
 3.542067041465e+04
 3.542072529118e+04
 3.542076627549e+04
 3.542079519441e+04
 3.542081459378e+04
 3.542082691743e+04
 3.542083447554e+04
 3.542083890450e+04
 3.542084132850e+04
 3.542084266200e+04
 3.542084339282e+04
 3.542084370033e+04
 3.542084386793e+04
 3.542084395307e+04
 3.542084396056e+04
 3.542084399494e+04
 3.542084399130e+04
 3.542084401601e+04
 3.542084404811e+04
 3.542084380136e+04
 3.542084399188e+04
 3.542084402885e+04
 3.542084404138e+04
 3.542084403142e+04
 3.542084396054e+04
 3.542084404650e+04
 3.542084399065e+04
 3.542084403476e+04
 3.542084395350e+04
 3.542084407622e+04
 3.542084403184e+04
 3.542084393571e+04
 3.542084404346e+04
 3.542084400671e+04
 3.542084402743e+04
 3.542084402816e+04
 3.542084393171e+04
 3.542084404183e+04
 3.542084406172e+04
 3.542084399135e+04
 3.542084400155e+04
 3.542084399516e+04
 3.542084397624e+04