# vtk DataFile Version 3.0
Unstructured Grid from OpenGeoSys
ASCII
DATASET UNSTRUCTURED_GRID
FIELD TimesAndCycles 2
TIME 1 1 double
1.400000000000e+04
CYLCE 1 1 long
140
POINTS 101 double
0.000000000000e+00 0.000000000000e+00 0.000000000000e+00
5.000000000000e-03 0.000000000000e+00 0.000000000000e+00
1.000000000000e-02 0.000000000000e+00 0.000000000000e+00
1.500000000000e-02 0.000000000000e+00 0.000000000000e+00
2.000000000000e-02 0.000000000000e+00 0.000000000000e+00
2.500000000000e-02 0.000000000000e+00 0.000000000000e+00
3.000000000000e-02 0.000000000000e+00 0.000000000000e+00
3.500000000000e-02 0.000000000000e+00 0.000000000000e+00
4.000000000000e-02 0.000000000000e+00 0.000000000000e+00
4.500000000000e-02 0.000000000000e+00 0.000000000000e+00
5.000000000000e-02 0.000000000000e+00 0.000000000000e+00
5.500000000000e-02 0.000000000000e+00 0.000000000000e+00
6.000000000000e-02 0.000000000000e+00 0.000000000000e+00
6.500000000000e-02 0.000000000000e+00 0.000000000000e+00
7.000000000000e-02 0.000000000000e+00 0.000000000000e+00
7.500000000000e-02 0.000000000000e+00 0.000000000000e+00
8.000000000000e-02 0.000000000000e+00 0.000000000000e+00
8.500000000000e-02 0.000000000000e+00 0.000000000000e+00
9.000000000000e-02 0.000000000000e+00 0.000000000000e+00
9.500000000000e-02 0.000000000000e+00 0.000000000000e+00
1.000000000000e-01 0.000000000000e+00 0.000000000000e+00
1.050000000000e-01 0.000000000000e+00 0.000000000000e+00
1.100000000000e-01 0.000000000000e+00 0.000000000000e+00
1.150000000000e-01 0.000000000000e+00 0.000000000000e+00
1.200000000000e-01 0.000000000000e+00 0.000000000000e+00
1.250000000000e-01 0.000000000000e+00 0.000000000000e+00
1.300000000000e-01 0.000000000000e+00 0.000000000000e+00
1.350000000000e-01 0.000000000000e+00 0.000000000000e+00
1.400000000000e-01 0.000000000000e+00 0.000000000000e+00
1.450000000000e-01 0.000000000000e+00 0.000000000000e+00
1.500000000000e-01 0.000000000000e+00 0.000000000000e+00
1.550000000000e-01 0.000000000000e+00 0.000000000000e+00
1.600000000000e-01 0.000000000000e+00 0.000000000000e+00
1.650000000000e-01 0.000000000000e+00 0.000000000000e+00
1.700000000000e-01 0.000000000000e+00 0.000000000000e+00
1.750000000000e-01 0.000000000000e+00 0.000000000000e+00
1.800000000000e-01 0.000000000000e+00 0.000000000000e+00
1.850000000000e-01 0.000000000000e+00 0.000000000000e+00
1.900000000000e-01 0.000000000000e+00 0.000000000000e+00
1.950000000000e-01 0.000000000000e+00 0.000000000000e+00
2.000000000000e-01 0.000000000000e+00 0.000000000000e+00
2.050000000000e-01 0.000000000000e+00 0.000000000000e+00
2.100000000000e-01 0.000000000000e+00 0.000000000000e+00
2.150000000000e-01 0.000000000000e+00 0.000000000000e+00
2.200000000000e-01 0.000000000000e+00 0.000000000000e+00
2.250000000000e-01 0.000000000000e+00 0.000000000000e+00
2.300000000000e-01 0.000000000000e+00 0.000000000000e+00
2.350000000000e-01 0.000000000000e+00 0.000000000000e+00
2.400000000000e-01 0.000000000000e+00 0.000000000000e+00
2.450000000000e-01 0.000000000000e+00 0.000000000000e+00
2.500000000000e-01 0.000000000000e+00 0.000000000000e+00
2.550000000000e-01 0.000000000000e+00 0.000000000000e+00
2.600000000000e-01 0.000000000000e+00 0.000000000000e+00
2.650000000000e-01 0.000000000000e+00 0.000000000000e+00
2.700000000000e-01 0.000000000000e+00 0.000000000000e+00
2.750000000000e-01 0.000000000000e+00 0.000000000000e+00
2.800000000000e-01 0.000000000000e+00 0.000000000000e+00
2.850000000000e-01 0.000000000000e+00 0.000000000000e+00
2.900000000000e-01 0.000000000000e+00 0.000000000000e+00
2.950000000000e-01 0.000000000000e+00 0.000000000000e+00
3.000000000000e-01 0.000000000000e+00 0.000000000000e+00
3.050000000000e-01 0.000000000000e+00 0.000000000000e+00
3.100000000000e-01 0.000000000000e+00 0.000000000000e+00
3.150000000000e-01 0.000000000000e+00 0.000000000000e+00
3.200000000000e-01 0.000000000000e+00 0.000000000000e+00
3.250000000000e-01 0.000000000000e+00 0.000000000000e+00
3.300000000000e-01 0.000000000000e+00 0.000000000000e+00
3.350000000000e-01 0.000000000000e+00 0.000000000000e+00
3.400000000000e-01 0.000000000000e+00 0.000000000000e+00
3.450000000000e-01 0.000000000000e+00 0.000000000000e+00
3.500000000000e-01 0.000000000000e+00 0.000000000000e+00
3.550000000000e-01 0.000000000000e+00 0.000000000000e+00
3.600000000000e-01 0.000000000000e+00 0.000000000000e+00
3.650000000000e-01 0.000000000000e+00 0.000000000000e+00
3.700000000000e-01 0.000000000000e+00 0.000000000000e+00
3.750000000000e-01 0.000000000000e+00 0.000000000000e+00
3.800000000000e-01 0.000000000000e+00 0.000000000000e+00
3.850000000000e-01 0.000000000000e+00 0.000000000000e+00
3.900000000000e-01 0.000000000000e+00 0.000000000000e+00
3.950000000000e-01 0.000000000000e+00 0.000000000000e+00
4.000000000000e-01 0.000000000000e+00 0.000000000000e+00
4.050000000000e-01 0.000000000000e+00 0.000000000000e+00
4.100000000000e-01 0.000000000000e+00 0.000000000000e+00
4.150000000000e-01 0.000000000000e+00 0.000000000000e+00
4.200000000000e-01 0.000000000000e+00 0.000000000000e+00
4.250000000000e-01 0.000000000000e+00 0.000000000000e+00
4.300000000000e-01 0.000000000000e+00 0.000000000000e+00
4.350000000000e-01 0.000000000000e+00 0.000000000000e+00
4.400000000000e-01 0.000000000000e+00 0.000000000000e+00
4.450000000000e-01 0.000000000000e+00 0.000000000000e+00
4.500000000000e-01 0.000000000000e+00 0.000000000000e+00
4.550000000000e-01 0.000000000000e+00 0.000000000000e+00
4.600000000000e-01 0.000000000000e+00 0.000000000000e+00
4.650000000000e-01 0.000000000000e+00 0.000000000000e+00
4.700000000000e-01 0.000000000000e+00 0.000000000000e+00
4.750000000000e-01 0.000000000000e+00 0.000000000000e+00
4.800000000000e-01 0.000000000000e+00 0.000000000000e+00
4.850000000000e-01 0.000000000000e+00 0.000000000000e+00
4.900000000000e-01 0.000000000000e+00 0.000000000000e+00
4.950000000000e-01 0.000000000000e+00 0.000000000000e+00
5.000000000000e-01 0.000000000000e+00 0.000000000000e+00
CELLS 100 300
2 0 1
2 2 3
2 4 5
2 6 7
2 8 9
2 10 11
2 12 13
2 14 15
2 16 17
2 18 19
2 20 21
2 22 23
2 24 25
2 26 27
2 28 29
2 30 31
2 32 33
2 34 35
2 36 37
2 38 39
2 40 41
2 42 43
2 44 45
2 46 47
2 48 49
2 50 51
2 52 53
2 54 55
2 56 57
2 58 59
2 60 61
2 62 63
2 64 65
2 66 67
2 68 69
2 70 71
2 72 73
2 74 75
2 76 77
2 78 79
2 80 81
2 82 83
2 84 85
2 86 87
2 88 89
2 90 91
2 92 93
2 94 95
2 96 97
2 98 99
2 1 2
2 3 4
2 5 6
2 7 8
2 9 10
2 11 12
2 13 14
2 15 16
2 17 18
2 19 20
2 21 22
2 23 24
2 25 26
2 27 28
2 29 30
2 31 32
2 33 34
2 35 36
2 37 38
2 39 40
2 41 42
2 43 44
2 45 46
2 47 48
2 49 50
2 51 52
2 53 54
2 55 56
2 57 58
2 59 60
2 61 62
2 63 64
2 65 66
2 67 68
2 69 70
2 71 72
2 73 74
2 75 76
2 77 78
2 79 80
2 81 82
2 83 84
2 85 86
2 87 88
2 89 90
2 91 92
2 93 94
2 95 96
2 97 98
2 99 100

CELL_TYPES 100
3
3
3
3
3
3
3
3
3
3
3
3
3
3
3
3
3
3
3
3
3
3
3
3
3
3
3
3
3
3
3
3
3
3
3
3
3
3
3
3
3
3
3
3
3
3
3
3
3
3
3
3
3
3
3
3
3
3
3
3
3
3
3
3
3
3
3
3
3
3
3
3
3
3
3
3
3
3
3
3
3
3
3
3
3
3
3
3
3
3
3
3
3
3
3
3
3
3
3
3

POINT_DATA 101
SCALARS 1-C double 1
LOOKUP_TABLE default
9.970358361137e-06
2.043060112257e-04
5.787017104449e-04
1.257723577451e-03
2.441850684574e-03
4.450482722236e-03
7.797111184705e-03
1.334536657109e-02
2.258047927298e-02
3.764227887574e-02
6.025149382191e-02
9.144354359755e-02
1.404933678027e-01
1.389880080526e-01
1.371014826500e-01
1.348266873546e-01
1.321382338998e-01
1.290470372350e-01
1.255932331075e-01
1.218380176294e-01
1.178722832285e-01
1.138074440645e-01
1.097636633859e-01
1.058834079991e-01
1.022505461719e-01
9.891399814313e-02
9.670793914259e-02
9.613493534930e-02
9.901009581297e-02
1.010357817613e-01
1.031069762788e-01
1.051902581159e-01
1.072392593501e-01
1.092289052681e-01
1.111355874535e-01
1.128995813402e-01
1.145231373202e-01
1.159749459189e-01
1.172459894899e-01
1.183266350156e-01
1.192358042462e-01
1.199805069184e-01
1.205882451052e-01
1.210534952460e-01
1.214130767701e-01
1.216804818239e-01
1.218999741799e-01
1.220409246041e-01
1.221425228977e-01
1.222318260378e-01
1.222725516594e-01
1.223253371283e-01
1.223445554133e-01
1.223627182837e-01
1.223766276043e-01
1.223884924483e-01
1.223742504804e-01
1.223903967686e-01
1.223808631674e-01
1.223967159868e-01
1.223932003974e-01
1.223988818695e-01
1.223856798776e-01
1.223951018199e-01
1.223903585149e-01
1.223952331079e-01
1.223962117645e-01
1.223956004226e-01
1.223938292870e-01
1.223893146411e-01
1.223864113913e-01
1.223941165550e-01
1.223881656260e-01
1.223912909268e-01
1.223865197135e-01
1.223932345703e-01
1.223957013174e-01
1.223928941119e-01
1.223824571055e-01
1.223911932872e-01
1.223938333410e-01
1.223978173370e-01
1.224049949524e-01
1.224025398312e-01
1.223949437011e-01
1.223967517240e-01
1.223954089431e-01
1.223965526120e-01
1.223964366334e-01
1.223936909423e-01
1.223840857847e-01
1.223989664458e-01
1.223962607141e-01
1.223936141450e-01
1.224042461773e-01
1.223936457735e-01
1.224003768263e-01
1.223883097941e-01
1.223938021269e-01
1.223847736503e-01
1.223961076023e-01
SCALARS 2-Ca double 1
LOOKUP_TABLE default
9.970358361137e-06
1.330751247541e-04
3.687562299562e-04
7.920735350566e-04
1.521383939061e-03
2.741422380356e-03
4.742710264418e-03
8.001618111633e-03
1.331829947930e-02
2.183548496725e-02
3.450392574499e-02
5.195148024062e-02
7.894751439866e-02
8.144088509758e-02
8.469870242245e-02
8.892323991936e-02
9.433397551269e-02
1.011952730036e-01
1.098130630710e-01
1.205309772330e-01
1.337366957830e-01
1.498619520712e-01
1.693559242343e-01
1.926466645541e-01
2.206474814047e-01
2.550403686835e-01
2.891899837030e-01
3.129115583340e-01
2.882220249067e-01
2.693509527763e-01
2.511743770005e-01
2.342659802835e-01
2.187327978647e-01
2.046316729894e-01
1.919895959925e-01
1.807604244666e-01
1.709224315044e-01
1.623871507958e-01
1.550613957152e-01
1.488310683714e-01
1.435970371353e-01
1.392409588919e-01
1.356632431638e-01
1.327341671286e-01
1.303728610554e-01
1.284842386217e-01
1.270147488042e-01
1.258475323953e-01
1.249472673075e-01
1.242778164744e-01
1.237502388118e-01
1.233820210105e-01
1.230927386288e-01
1.228872709628e-01
1.227408006139e-01
1.226388635851e-01
1.225447173634e-01
1.225053436947e-01
1.224576310322e-01
1.224474980405e-01
1.224264751159e-01
1.224204800468e-01
1.223995680213e-01
1.224039493489e-01
1.223959429241e-01
1.223987256131e-01
1.223983761218e-01
1.223969295930e-01
1.223946382345e-01
1.223898025921e-01
1.223867031183e-01
1.223942894372e-01
1.223882671868e-01
1.223913500738e-01
1.223865538641e-01
1.223932541207e-01
1.223957124150e-01
1.223929003586e-01
1.223824605925e-01
1.223911952176e-01
1.223938344010e-01
1.223978179143e-01
1.224049952643e-01
1.224025399983e-01
1.223949437900e-01
1.223967517709e-01
1.223954089677e-01
1.223965526248e-01
1.223964366400e-01
1.223936909457e-01
1.223840857864e-01
1.223989664466e-01
1.223962607145e-01
1.223936141452e-01
1.224042461774e-01
1.223936457736e-01
1.224003768264e-01
1.223883097942e-01
1.223938021269e-01
1.223847736503e-01
1.223961076023e-01
SCALARS 3-Cl double 1
LOOKUP_TABLE default
3.988143344455e+00
3.987778281105e+00
3.987098628937e+00
3.985931424685e+00
3.984036492987e+00
3.981090165586e+00
3.976668554192e+00
3.970231759900e+00
3.961110804443e+00
3.948499362251e+00
3.931452598756e+00
3.908895696188e+00
3.879643785896e+00
3.842430393385e+00
3.795960148211e+00
3.738960198108e+00
3.670249282734e+00
3.588811561977e+00
3.493872226784e+00
3.384969272512e+00
3.262015422501e+00
3.125344367435e+00
2.975736315235e+00
2.814419211495e+00
2.643043863871e+00
2.463633457947e+00
2.278509943239e+00
2.090201376771e+00
1.901339028309e+00
1.714545864067e+00
1.532330697798e+00
1.356990453835e+00
1.190528343355e+00
1.034592130590e+00
8.904351721874e-01
7.589009139222e-01
6.404296809898e-01
5.350850300847e-01
4.425957900280e-01
3.624092304891e-01
2.937506046386e-01
2.356845392101e-01
1.871743207114e-01
1.471359300840e-01
1.144846028999e-01
8.817262180003e-02
6.721790683697e-02
5.072368193397e-02
3.789004044993e-02
2.801858687547e-02
2.051151773670e-02
1.486653986389e-02
1.066894452788e-02
7.581999257893e-03
5.336616133876e-03
3.721038352241e-03
2.571076260018e-03
1.761235978565e-03
1.196926921310e-03
8.078121627021e-04
5.422768338750e-04
3.629309596355e-04
2.430293112214e-04
1.636762880252e-04
1.116831637797e-04
7.795352453915e-05
5.628647695247e-05
4.250332216170e-05
3.381978488205e-05
2.840125045228e-05
2.505204492133e-05
2.300128921832e-05
2.175724648726e-05
2.100952015418e-05
2.056419980745e-05
2.030137821296e-05
2.014765335386e-05
2.005853701818e-05
2.000732923044e-05
1.997816068142e-05
1.996168933531e-05
1.995246758946e-05
1.994734841362e-05
1.994453050928e-05
1.994299227510e-05
1.994215951050e-05
1.994171235373e-05
1.994147419204e-05
1.994134836439e-05
1.994128241181e-05
1.994124811011e-05
1.994123042300e-05
1.994122136256e-05
1.994121675889e-05
1.994121444274e-05
1.994121327801e-05
1.994121270225e-05
1.994121241270e-05
1.994121227855e-05
1.994121221010e-05
1.994121219378e-05
SCALARS 4-H double 1
LOOKUP_TABLE default
2.701109245634e-04
5.321062211185e-04
1.208832752463e-03
2.520735001953e-03
4.816033546864e-03
8.643385366722e-03
1.481694164741e-02
2.454640816062e-02
3.956209151252e-02
6.166475966494e-02
9.079221577302e-02
1.256463748742e-01
1.723160534793e-01
1.709870010027e-01
1.693109447590e-01
1.672744474099e-01
1.648453110011e-01
1.620216066908e-01
1.588270170226e-01
1.552986328594e-01
1.515204192792e-01
1.475731024868e-01
1.435621257351e-01
1.395970337070e-01
1.358079406398e-01
1.321928356265e-01
1.296912886404e-01
1.289609178441e-01
1.325058705436e-01
1.350471574064e-01
1.377496551138e-01
1.404668093126e-01
1.431908903945e-01
1.458613760473e-01
1.484580665529e-01
1.509165876503e-01
1.532012965276e-01
1.553043176031e-01
1.572066099050e-01
1.588569644446e-01
1.602887462989e-01
1.615008508906e-01
1.625238187070e-01
1.633365367426e-01
1.639931212551e-01
1.645159751997e-01
1.649326053057e-01
1.652315644464e-01
1.654657233644e-01
1.656464186643e-01
1.657791109645e-01
1.658754511563e-01
1.659318853369e-01
1.659978143694e-01
1.660170505393e-01
1.660654192487e-01
1.660673966223e-01
1.660693422639e-01
1.660835212144e-01
1.660994940031e-01
1.660892479728e-01
1.661120715556e-01
1.660914006331e-01
1.660918459058e-01
1.661076217826e-01
1.661140248602e-01
1.660920818853e-01
1.660922593317e-01
1.661163859548e-01
1.660983478282e-01
1.660923481352e-01
1.661090424973e-01
1.661098970762e-01
1.661111778911e-01
1.661083570609e-01
1.661057909026e-01
1.661022295920e-01
1.660924623124e-01
1.661023037977e-01
1.660990455415e-01
1.661035279028e-01
1.660955766049e-01
1.661038440900e-01
1.661133633823e-01
1.660982615921e-01
1.661100859976e-01
1.661031435688e-01
1.661094527006e-01
1.660926185191e-01
1.661164046099e-01
1.660943834622e-01
1.661062784579e-01
1.661130048452e-01
1.661163460372e-01
1.661055429080e-01
1.661020781467e-01
1.661005030559e-01
1.661019393705e-01
1.660917786292e-01
1.660934107383e-01
1.660962780488e-01
SCALARS 5-Mg double 1
LOOKUP_TABLE default
1.994071672227e+00
1.993960371439e+00
1.993759259949e+00
1.993431362385e+00
1.992938713239e+00
1.992254143135e+00
1.991388678016e+00
1.990459628409e+00
1.989817582015e+00
1.990056475034e+00
1.991473867455e+00
1.993939911451e+00
2.001367746352e+00
1.978762319648e+00
1.950382854333e+00
1.915383546489e+00
1.872928899754e+00
1.822257545220e+00
1.762716283428e+00
1.693791676653e+00
1.615143298696e+00
1.526617675711e+00
1.428275896769e+00
1.320446349192e+00
1.203124996702e+00
1.075690358433e+00
9.467729270589e-01
8.283240654007e-01
7.614575850606e-01
6.889577610184e-01
6.180979481774e-01
5.494195047497e-01
4.837706331627e-01
4.218932975739e-01
3.643635775547e-01
3.115896138347e-01
2.638155463107e-01
2.211303101655e-01
1.834824887888e-01
1.507001818887e-01
1.225140694301e-01
9.858181763136e-02
7.851216229704e-02
6.188729315920e-02
4.828251716458e-02
3.728255410210e-02
2.849417879405e-02
2.155523317569e-02
1.614027581509e-02
1.196330300102e-02
8.778071715903e-03
6.376586049605e-03
4.586289048298e-03
3.266446949785e-03
2.304135057221e-03
1.610148039313e-03
1.115071246885e-03
7.656710631644e-04
5.216955957840e-04
3.531240275963e-04
2.378636984222e-04
1.598673025135e-04
1.076265118490e-04
7.299061491357e-05
5.025717263616e-05
3.548425709519e-05
2.597888124319e-05
1.992249061608e-05
1.610094496509e-05
1.371267430110e-05
1.223429546767e-05
1.132776237532e-05
1.077706243282e-05
1.044561305721e-05
1.024794921681e-05
1.013113874009e-05
1.006272909678e-05
1.002302183736e-05
1.000017766976e-05
9.987149943129e-06
9.979784724589e-06
9.975656521439e-06
9.973362337622e-06
9.972098113098e-06
9.971407269415e-06
9.971032875409e-06
9.970831639202e-06
9.970724351728e-06
9.970667613760e-06
9.970637846203e-06
9.970622349525e-06
9.970614352157e-06
9.970610251499e-06
9.970608166074e-06
9.970607116212e-06
9.970606587548e-06
9.970606326129e-06
9.970606194289e-06
9.970606133479e-06
9.970606102184e-06
9.970606094923e-06
SCALARS 6-O double 1
LOOKUP_TABLE default
2.010568337471e-02
2.083611452941e-02
2.232824714925e-02
2.507378470525e-02
2.985908193165e-02
3.793123066645e-02
5.125685488106e-02
7.305599337379e-02
1.086795938941e-01
1.654838116860e-01
2.486422453923e-01
3.606604808029e-01
5.324610939865e-01
5.289549461413e-01
5.245483305038e-01
5.192704940871e-01
5.130823325894e-01
5.060613435591e-01
4.983746477934e-01
4.902451766800e-01
4.819915267073e-01
4.739732976479e-01
4.665686025306e-01
4.602043675067e-01
4.551229763992e-01
4.513791514533e-01
4.518407297070e-01
4.582304363118e-01
4.771273293017e-01
4.928809415568e-01
5.086457617292e-01
5.241448789142e-01
5.391451690073e-01
5.534669844711e-01
5.669729846555e-01
5.794138384413e-01
5.907586461403e-01
6.009066673540e-01
6.098335188327e-01
6.175095593423e-01
6.240430920031e-01
6.294966794566e-01
6.340147467153e-01
6.376189457260e-01
6.404956077083e-01
6.427435594784e-01
6.445535424719e-01
6.458683037726e-01
6.468678482020e-01
6.476704472596e-01
6.481968893477e-01
6.486575195495e-01
6.489323451913e-01
6.491587584134e-01
6.493111827783e-01
6.494436897057e-01
6.494537207098e-01
6.495395898396e-01
6.495434829536e-01
6.496165455587e-01
6.496128301021e-01
6.496493606572e-01
6.496048172696e-01
6.496368784335e-01
6.496328772825e-01
6.496522212254e-01
6.496451612849e-01
6.496440365408e-01
6.496511773775e-01
6.496288583399e-01
6.496172995574e-01
6.496488546345e-01
6.496314851285e-01
6.496415350928e-01
6.496258311327e-01
6.496447044365e-01
6.496503310106e-01
6.496370297434e-01
6.496106416721e-01
6.496352225028e-01
6.496453846570e-01
6.496533613523e-01
6.496790282552e-01
6.496764226007e-01
6.496460833375e-01
6.496574196204e-01
6.496499201071e-01
6.496565056733e-01
6.496477406786e-01
6.496513966397e-01
6.496115705437e-01
6.496621600896e-01
6.496574060664e-01
6.496511369798e-01
6.496776315712e-01
6.496440978923e-01
6.496635035424e-01
6.496280205500e-01
6.496394172027e-01
6.496131478325e-01
6.496485833663e-01
SCALARS 7-Sn double 1
LOOKUP_TABLE default
0.000000000000e+00
0.000000000000e+00
0.000000000000e+00
0.000000000000e+00
0.000000000000e+00
0.000000000000e+00
0.000000000000e+00
0.000000000000e+00
0.000000000000e+00
0.000000000000e+00
0.000000000000e+00
0.000000000000e+00
0.000000000000e+00
0.000000000000e+00
0.000000000000e+00
0.000000000000e+00
0.000000000000e+00
0.000000000000e+00
0.000000000000e+00
0.000000000000e+00
0.000000000000e+00
0.000000000000e+00
0.000000000000e+00
0.000000000000e+00
0.000000000000e+00
0.000000000000e+00
0.000000000000e+00
0.000000000000e+00
0.000000000000e+00
0.000000000000e+00
0.000000000000e+00
0.000000000000e+00
0.000000000000e+00
0.000000000000e+00
0.000000000000e+00
0.000000000000e+00
0.000000000000e+00
0.000000000000e+00
0.000000000000e+00
0.000000000000e+00
0.000000000000e+00
0.000000000000e+00
0.000000000000e+00
0.000000000000e+00
0.000000000000e+00
0.000000000000e+00
0.000000000000e+00
0.000000000000e+00
0.000000000000e+00
0.000000000000e+00
0.000000000000e+00
0.000000000000e+00
0.000000000000e+00
0.000000000000e+00
0.000000000000e+00
0.000000000000e+00
0.000000000000e+00
0.000000000000e+00
0.000000000000e+00
0.000000000000e+00
0.000000000000e+00
0.000000000000e+00
0.000000000000e+00
0.000000000000e+00
0.000000000000e+00
0.000000000000e+00
0.000000000000e+00
0.000000000000e+00
0.000000000000e+00
0.000000000000e+00
0.000000000000e+00
0.000000000000e+00
0.000000000000e+00
0.000000000000e+00
0.000000000000e+00
0.000000000000e+00
0.000000000000e+00
0.000000000000e+00
0.000000000000e+00
0.000000000000e+00
0.000000000000e+00
0.000000000000e+00
0.000000000000e+00
0.000000000000e+00
0.000000000000e+00
0.000000000000e+00
0.000000000000e+00
0.000000000000e+00
0.000000000000e+00
0.000000000000e+00
0.000000000000e+00
0.000000000000e+00
0.000000000000e+00
0.000000000000e+00
0.000000000000e+00
0.000000000000e+00
0.000000000000e+00
0.000000000000e+00
0.000000000000e+00
0.000000000000e+00
0.000000000000e+00
SCALARS 8-Zz double 1
LOOKUP_TABLE default
1.035722930241e-15
4.329479513510e-16
-1.362942778092e-14
-1.652720328521e-15
6.274433660534e-16
2.032264094610e-17
1.897399620366e-16
-6.840326903500e-17
-1.717239771519e-16
-1.623698344981e-16
2.958826014871e-16
-1.163482287638e-18
5.219132611946e-16
-1.761768219724e-16
-3.044549134597e-16
1.019994734400e-16
2.698783663578e-16
-6.350641970416e-16
-6.397443695437e-17
4.542569556278e-16
1.397588265762e-16
6.657929800353e-16
4.971944555139e-16
-6.203078239275e-16
-4.468641701506e-16
4.788160091665e-16
3.566366278525e-16
6.315774602907e-17
6.373135557226e-17
-3.195471069686e-16
-6.198548643918e-17
-1.112935764403e-17
1.654598571859e-16
5.586752770087e-17
2.135093900889e-16
-6.547690012205e-17
-1.503989603239e-16
-6.830622683484e-17
7.459238546406e-17
9.997591314363e-18
-5.624554475054e-17
-1.006266825311e-16
8.158110605755e-17
-2.276921436388e-18
5.616210318812e-17
-2.120394162883e-17
4.403992436753e-19
-5.423612168934e-17
-8.350938735431e-18
-5.282588032722e-17
2.779939801608e-17
3.831027168495e-17
-7.597396199077e-18
7.090744664707e-17
7.421242589067e-18
7.496995352547e-18
1.627999446732e-17
-1.941263669984e-17
-2.104605779196e-17
-4.217481226110e-17
-1.509425343830e-17
1.335178643369e-17
-4.284622514774e-17
-3.498852257056e-19
-5.198134721534e-17
2.627703059788e-17
-2.140731658224e-17
2.248359771497e-17
1.983490241050e-19
1.383760362943e-17
-7.449508005404e-18
2.423681002046e-17
9.925483298014e-18
-2.814943607070e-17
-3.268632507989e-17
-1.834119937550e-17
2.710516078318e-17
2.101840536407e-18
4.968715092521e-17
-5.247741926776e-18
3.796207181336e-18
2.993243136160e-17
1.687378453300e-17
1.622752534535e-17
1.102109343984e-18
6.428376925565e-17
-8.848205888410e-18
5.430900527943e-18
-7.966809676831e-18
4.337880901116e-18
2.357985158733e-17
-5.293405107999e-18
-4.632476721036e-18
-2.855091667378e-17
-2.369837047474e-17
1.049612760798e-17
-5.009631092702e-18
2.004873318627e-18
-4.100873737191e-18
-1.390417473599e-17
-1.539887389908e-19
SCALARS C double 1
LOOKUP_TABLE default
 3.190559220786e-06
 6.537827812602e-05
 1.851855515679e-04
 4.024737273216e-04
 7.813964564259e-04
 1.424162194072e-03
 2.495089109492e-03
 4.270540461067e-03
 7.225792551432e-03
 1.204559456117e-02
 1.928058257789e-02
 2.926209263390e-02
 9.316464600611e-02
 1.172250521997e-01
 1.202435220307e-01
 1.199720864875e-01
 1.189943775419e-01
 1.177877361042e-01
 1.164476253603e-01
 1.149410526670e-01
 1.132874187850e-01
 1.116099384450e-01
 1.098464972336e-01
 1.081397404507e-01
 1.064361763605e-01
 1.048164126147e-01
 1.035202464987e-01
 1.012429005840e-01
 1.015989750761e-01
 1.023542478632e-01
 1.029213224073e-01
 1.034883828875e-01
 1.040809184335e-01
 1.046544959429e-01
 1.051806962092e-01
 1.057006466969e-01
 1.062112955765e-01
 1.066099032228e-01
 1.070264258986e-01
 1.073505966936e-01
 1.076063165531e-01
 1.078756866841e-01
 1.080417188843e-01
 1.082442802828e-01
 1.083103059279e-01
 1.083719516898e-01
 1.085047304072e-01
 1.085473225112e-01
 1.085243136144e-01
 1.086001469455e-01
 1.085726845400e-01
 1.086340666993e-01
 1.086414787002e-01
 1.085938638500e-01
 1.086309564365e-01
 1.086357162983e-01
 1.086745594553e-01
 1.086204163192e-01
 1.086354181346e-01
 1.086723358578e-01
 1.086119001141e-01
 1.086483284661e-01
 1.086590188768e-01
 1.086053995549e-01
 1.086294974770e-01
 1.086910670473e-01
 1.086074864960e-01
 1.086442439099e-01
 1.086156293531e-01
 1.086816239306e-01
 1.085791636537e-01
 1.086716518283e-01
 1.086456506338e-01
 1.086439071876e-01
 1.086327752723e-01
 1.086188602475e-01
 1.086935498620e-01
 1.086174787151e-01
 1.086081825851e-01
 1.086699782653e-01
 1.086065691863e-01
 1.086566227721e-01
 1.086481226945e-01
 1.086186531724e-01
 1.086671822298e-01
 1.086387104339e-01
 1.086235045461e-01
 1.086414627418e-01
 1.086506617691e-01
 1.086303615769e-01
 1.086334498011e-01
 1.086430576229e-01
 1.086301809448e-01
 1.086800880121e-01
 1.086225181678e-01
 1.086364195199e-01
 1.086053101361e-01
 1.086674155895e-01
 1.086134625951e-01
 1.086980245736e-01
 1.085490328136e-01
SCALARS Ca double 1
LOOKUP_TABLE default
 3.190559220786e-06
 4.258427084758e-05
 1.180026334915e-04
 2.534649057094e-04
 4.868455005686e-04
 8.772599189251e-04
 1.517675514675e-03
 2.560531680992e-03
 4.261878944724e-03
 6.987393080805e-03
 1.104131611332e-02
 1.662456382880e-02
 4.936659035699e-02
 6.243552079276e-02
 6.528909688412e-02
 6.686919416352e-02
 6.854192275391e-02
 7.062880278144e-02
 7.326904172251e-02
 7.654631390295e-02
 8.057983454445e-02
 8.555153911328e-02
 9.155488148963e-02
 9.877536604014e-02
 1.074650866903e-01
 1.181947570788e-01
 1.288275029797e-01
 1.611342063406e-01
 1.621466321305e-01
 1.562149593657e-01
 1.503027651685e-01
 1.447925050793e-01
 1.397587569506e-01
 1.351833015668e-01
 1.310539113525e-01
 1.274160598813e-01
 1.242590226802e-01
 1.214617701902e-01
 1.191273244323e-01
 1.171119900154e-01
 1.154018908628e-01
 1.140390153113e-01
 1.128657057524e-01
 1.119820855685e-01
 1.111774294620e-01
 1.105491482235e-01
 1.101414540341e-01
 1.097654338396e-01
 1.094218294994e-01
 1.092548621848e-01
 1.090455432029e-01
 1.089722046632e-01
 1.088808967072e-01
 1.087617202723e-01
 1.087474914971e-01
 1.087158348541e-01
 1.087291087160e-01
 1.086571992402e-01
 1.086599837875e-01
 1.086885860728e-01
 1.086225479964e-01
 1.086552398649e-01
 1.086634630713e-01
 1.086082307569e-01
 1.086312844834e-01
 1.086921846461e-01
 1.086081790885e-01
 1.086446692434e-01
 1.086158882156e-01
 1.086817800745e-01
 1.085792570061e-01
 1.086717071504e-01
 1.086456831331e-01
 1.086439261146e-01
 1.086327862005e-01
 1.086188665036e-01
 1.086935534132e-01
 1.086174807141e-01
 1.086081837009e-01
 1.086699788830e-01
 1.086065695255e-01
 1.086566229568e-01
 1.086481227943e-01
 1.086186532259e-01
 1.086671822583e-01
 1.086387104489e-01
 1.086235045540e-01
 1.086414627458e-01
 1.086506617712e-01
 1.086303615780e-01
 1.086334498017e-01
 1.086430576232e-01
 1.086301809449e-01
 1.086800880121e-01
 1.086225181679e-01
 1.086364195199e-01
 1.086053101361e-01
 1.086674155895e-01
 1.086134625951e-01
 1.086980245736e-01
 1.085490328136e-01
SCALARS Cl double 1
LOOKUP_TABLE default
 1.276223688314e+00
 1.276095969976e+00
 1.275878480103e+00
 1.275504972716e+00
 1.274898591285e+00
 1.273955761404e+00
 1.272540838085e+00
 1.270481052741e+00
 1.267562331168e+00
 1.263526647781e+00
 1.258071653882e+00
 1.250853405917e+00
 1.241486722593e+00
 1.229575394121e+00
 1.214704501197e+00
 1.196464503449e+00
 1.174477075122e+00
 1.148417089412e+00
 1.118036597630e+00
 1.083187763881e+00
 1.043842659566e+00
 1.000108055196e+00
 9.522336260203e-01
 9.006123031069e-01
 8.457723502264e-01
 7.883611785797e-01
 7.291218119854e-01
 6.688628144534e-01
 6.084268786940e-01
 5.486532175643e-01
 4.903445248249e-01
 4.342358003282e-01
 3.809680681958e-01
 3.310686137232e-01
 2.849385107483e-01
 2.428476593065e-01
 2.049369638185e-01
 1.712267646868e-01
 1.416302846163e-01
 1.159706525602e-01
 9.399994973186e-02
 7.541885670719e-02
 5.989562729341e-02
 4.708337522838e-02
 3.663497789862e-02
 2.821516586515e-02
 2.150967429691e-02
 1.623153604741e-02
 1.212478152005e-02
 8.965924514168e-03
 6.563668659491e-03
 4.757280398808e-03
 3.414053379990e-03
 2.426233474686e-03
 1.707712730689e-03
 1.190729182199e-03
 8.227422636700e-04
 5.635940513765e-04
 3.830156206135e-04
 2.584992201200e-04
 1.735281369577e-04
 1.161376055256e-04
 7.776917752497e-05
 5.237627642233e-05
 3.573851967888e-05
 2.494506295487e-05
 1.801162593973e-05
 1.360102778068e-05
 1.082230310037e-05
 9.088376508115e-06
 8.016633619492e-06
 7.360393417079e-06
 6.962300797316e-06
 6.723028994163e-06
 6.580526860488e-06
 6.496424180559e-06
 6.447232298229e-06
 6.418715200702e-06
 6.402328755517e-06
 6.392994800495e-06
 6.387724030815e-06
 6.384773043844e-06
 6.383134919784e-06
 6.382233213868e-06
 6.381740942670e-06
 6.381474480087e-06
 6.381331401175e-06
 6.381255176675e-06
 6.381214905131e-06
 6.381193814661e-06
 6.381182833608e-06
 6.381177170178e-06
 6.381174279693e-06
 6.381172769140e-06
 6.381172072882e-06
 6.381171687431e-06
 6.381171527689e-06
 6.381171386446e-06
 6.381171384550e-06
 6.381171298236e-06
 6.381171405420e-06
SCALARS H double 1
LOOKUP_TABLE default
 3.542055048139e+04
 3.542024812556e+04
 3.542024835549e+04
 3.542024878933e+04
 3.542024953546e+04
 3.542025077125e+04
 3.542025278324e+04
 3.542025605842e+04
 3.542026145193e+04
 3.542027032715e+04
 3.542028414039e+04
 3.542030414485e+04
 3.542016433177e+04
 3.542008330040e+04
 3.542007839662e+04
 3.542008658371e+04
 3.542009882587e+04
 3.542011361755e+04
 3.542013081059e+04
 3.542015068420e+04
 3.542017329812e+04
 3.542019829216e+04
 3.542022588814e+04
 3.542025553351e+04
 3.542028712633e+04
 3.542031986935e+04
 3.542035471895e+04
 3.542037088055e+04
 3.542040700791e+04
 3.542044873338e+04
 3.542049039948e+04
 3.542053062287e+04
 3.542056877440e+04
 3.542060463055e+04
 3.542063798514e+04
 3.542066836265e+04
 3.542069567343e+04
 3.542072025024e+04
 3.542074159046e+04
 3.542076023618e+04
 3.542077628572e+04
 3.542078961436e+04
 3.542080097630e+04
 3.542081002431e+04
 3.542081777483e+04
 3.542082394457e+04
 3.542082853193e+04
 3.542083233326e+04
 3.542083550376e+04
 3.542083758368e+04
 3.542083945700e+04
 3.542084057638e+04
 3.542084152422e+04