# vtk DataFile Version 3.0
Unstructured Grid from OpenGeoSys
ASCII
DATASET UNSTRUCTURED_GRID
FIELD TimesAndCycles 2
TIME 1 1 double
1.000000000000e+03
CYLCE 1 1 long
10
POINTS 101 double
0.000000000000e+00 0.000000000000e+00 0.000000000000e+00
5.000000000000e-03 0.000000000000e+00 0.000000000000e+00
1.000000000000e-02 0.000000000000e+00 0.000000000000e+00
1.500000000000e-02 0.000000000000e+00 0.000000000000e+00
2.000000000000e-02 0.000000000000e+00 0.000000000000e+00
2.500000000000e-02 0.000000000000e+00 0.000000000000e+00
3.000000000000e-02 0.000000000000e+00 0.000000000000e+00
3.500000000000e-02 0.000000000000e+00 0.000000000000e+00
4.000000000000e-02 0.000000000000e+00 0.000000000000e+00
4.500000000000e-02 0.000000000000e+00 0.000000000000e+00
5.000000000000e-02 0.000000000000e+00 0.000000000000e+00
5.500000000000e-02 0.000000000000e+00 0.000000000000e+00
6.000000000000e-02 0.000000000000e+00 0.000000000000e+00
6.500000000000e-02 0.000000000000e+00 0.000000000000e+00
7.000000000000e-02 0.000000000000e+00 0.000000000000e+00
7.500000000000e-02 0.000000000000e+00 0.000000000000e+00
8.000000000000e-02 0.000000000000e+00 0.000000000000e+00
8.500000000000e-02 0.000000000000e+00 0.000000000000e+00
9.000000000000e-02 0.000000000000e+00 0.000000000000e+00
9.500000000000e-02 0.000000000000e+00 0.000000000000e+00
1.000000000000e-01 0.000000000000e+00 0.000000000000e+00
1.050000000000e-01 0.000000000000e+00 0.000000000000e+00
1.100000000000e-01 0.000000000000e+00 0.000000000000e+00
1.150000000000e-01 0.000000000000e+00 0.000000000000e+00
1.200000000000e-01 0.000000000000e+00 0.000000000000e+00
1.250000000000e-01 0.000000000000e+00 0.000000000000e+00
1.300000000000e-01 0.000000000000e+00 0.000000000000e+00
1.350000000000e-01 0.000000000000e+00 0.000000000000e+00
1.400000000000e-01 0.000000000000e+00 0.000000000000e+00
1.450000000000e-01 0.000000000000e+00 0.000000000000e+00
1.500000000000e-01 0.000000000000e+00 0.000000000000e+00
1.550000000000e-01 0.000000000000e+00 0.000000000000e+00
1.600000000000e-01 0.000000000000e+00 0.000000000000e+00
1.650000000000e-01 0.000000000000e+00 0.000000000000e+00
1.700000000000e-01 0.000000000000e+00 0.000000000000e+00
1.750000000000e-01 0.000000000000e+00 0.000000000000e+00
1.800000000000e-01 0.000000000000e+00 0.000000000000e+00
1.850000000000e-01 0.000000000000e+00 0.000000000000e+00
1.900000000000e-01 0.000000000000e+00 0.000000000000e+00
1.950000000000e-01 0.000000000000e+00 0.000000000000e+00
2.000000000000e-01 0.000000000000e+00 0.000000000000e+00
2.050000000000e-01 0.000000000000e+00 0.000000000000e+00
2.100000000000e-01 0.000000000000e+00 0.000000000000e+00
2.150000000000e-01 0.000000000000e+00 0.000000000000e+00
2.200000000000e-01 0.000000000000e+00 0.000000000000e+00
2.250000000000e-01 0.000000000000e+00 0.000000000000e+00
2.300000000000e-01 0.000000000000e+00 0.000000000000e+00
2.350000000000e-01 0.000000000000e+00 0.000000000000e+00
2.400000000000e-01 0.000000000000e+00 0.000000000000e+00
2.450000000000e-01 0.000000000000e+00 0.000000000000e+00
2.500000000000e-01 0.000000000000e+00 0.000000000000e+00
2.550000000000e-01 0.000000000000e+00 0.000000000000e+00
2.600000000000e-01 0.000000000000e+00 0.000000000000e+00
2.650000000000e-01 0.000000000000e+00 0.000000000000e+00
2.700000000000e-01 0.000000000000e+00 0.000000000000e+00
2.750000000000e-01 0.000000000000e+00 0.000000000000e+00
2.800000000000e-01 0.000000000000e+00 0.000000000000e+00
2.850000000000e-01 0.000000000000e+00 0.000000000000e+00
2.900000000000e-01 0.000000000000e+00 0.000000000000e+00
2.950000000000e-01 0.000000000000e+00 0.000000000000e+00
3.000000000000e-01 0.000000000000e+00 0.000000000000e+00
3.050000000000e-01 0.000000000000e+00 0.000000000000e+00
3.100000000000e-01 0.000000000000e+00 0.000000000000e+00
3.150000000000e-01 0.000000000000e+00 0.000000000000e+00
3.200000000000e-01 0.000000000000e+00 0.000000000000e+00
3.250000000000e-01 0.000000000000e+00 0.000000000000e+00
3.300000000000e-01 0.000000000000e+00 0.000000000000e+00
3.350000000000e-01 0.000000000000e+00 0.000000000000e+00
3.400000000000e-01 0.000000000000e+00 0.000000000000e+00
3.450000000000e-01 0.000000000000e+00 0.000000000000e+00
3.500000000000e-01 0.000000000000e+00 0.000000000000e+00
3.550000000000e-01 0.000000000000e+00 0.000000000000e+00
3.600000000000e-01 0.000000000000e+00 0.000000000000e+00
3.650000000000e-01 0.000000000000e+00 0.000000000000e+00
3.700000000000e-01 0.000000000000e+00 0.000000000000e+00
3.750000000000e-01 0.000000000000e+00 0.000000000000e+00
3.800000000000e-01 0.000000000000e+00 0.000000000000e+00
3.850000000000e-01 0.000000000000e+00 0.000000000000e+00
3.900000000000e-01 0.000000000000e+00 0.000000000000e+00
3.950000000000e-01 0.000000000000e+00 0.000000000000e+00
4.000000000000e-01 0.000000000000e+00 0.000000000000e+00
4.050000000000e-01 0.000000000000e+00 0.000000000000e+00
4.100000000000e-01 0.000000000000e+00 0.000000000000e+00
4.150000000000e-01 0.000000000000e+00 0.000000000000e+00
4.200000000000e-01 0.000000000000e+00 0.000000000000e+00
4.250000000000e-01 0.000000000000e+00 0.000000000000e+00
4.300000000000e-01 0.000000000000e+00 0.000000000000e+00
4.350000000000e-01 0.000000000000e+00 0.000000000000e+00
4.400000000000e-01 0.000000000000e+00 0.000000000000e+00
4.450000000000e-01 0.000000000000e+00 0.000000000000e+00
4.500000000000e-01 0.000000000000e+00 0.000000000000e+00
4.550000000000e-01 0.000000000000e+00 0.000000000000e+00
4.600000000000e-01 0.000000000000e+00 0.000000000000e+00
4.650000000000e-01 0.000000000000e+00 0.000000000000e+00
4.700000000000e-01 0.000000000000e+00 0.000000000000e+00
4.750000000000e-01 0.000000000000e+00 0.000000000000e+00
4.800000000000e-01 0.000000000000e+00 0.000000000000e+00
4.850000000000e-01 0.000000000000e+00 0.000000000000e+00
4.900000000000e-01 0.000000000000e+00 0.000000000000e+00
4.950000000000e-01 0.000000000000e+00 0.000000000000e+00
5.000000000000e-01 0.000000000000e+00 0.000000000000e+00
CELLS 100 300
2 0 1
2 2 3
2 4 5
2 6 7
2 8 9
2 10 11
2 12 13
2 14 15
2 16 17
2 18 19
2 20 21
2 22 23
2 24 25
2 26 27
2 28 29
2 30 31
2 32 33
2 34 35
2 36 37
2 38 39
2 40 41
2 42 43
2 44 45
2 46 47
2 48 49
2 50 51
2 52 53
2 54 55
2 56 57
2 58 59
2 60 61
2 62 63
2 64 65
2 66 67
2 68 69
2 70 71
2 72 73
2 74 75
2 76 77
2 78 79
2 80 81
2 82 83
2 84 85
2 86 87
2 88 89
2 90 91
2 92 93
2 94 95
2 96 97
2 98 99
2 1 2
2 3 4
2 5 6
2 7 8
2 9 10
2 11 12
2 13 14
2 15 16
2 17 18
2 19 20
2 21 22
2 23 24
2 25 26
2 27 28
2 29 30
2 31 32
2 33 34
2 35 36
2 37 38
2 39 40
2 41 42
2 43 44
2 45 46
2 47 48
2 49 50
2 51 52
2 53 54
2 55 56
2 57 58
2 59 60
2 61 62
2 63 64
2 65 66
2 67 68
2 69 70
2 71 72
2 73 74
2 75 76
2 77 78
2 79 80
2 81 82
2 83 84
2 85 86
2 87 88
2 89 90
2 91 92
2 93 94
2 95 96
2 97 98
2 99 100

CELL_TYPES 100
3
3
3
3
3
3
3
3
3
3
3
3
3
3
3
3
3
3
3
3
3
3
3
3
3
3
3
3
3
3
3
3
3
3
3
3
3
3
3
3
3
3
3
3
3
3
3
3
3
3
3
3
3
3
3
3
3
3
3
3
3
3
3
3
3
3
3
3
3
3
3
3
3
3
3
3
3
3
3
3
3
3
3
3
3
3
3
3
3
3
3
3
3
3
3
3
3
3
3
3

POINT_DATA 101
SCALARS 1-C double 1
LOOKUP_TABLE default
9.970358361137e-06
4.694060958948e-02
1.196406781149e-01
1.138305676788e-01
1.192917805230e-01
1.240940668971e-01
1.240154339764e-01
1.234572218220e-01
1.229395243156e-01
1.226195700675e-01
1.224847465637e-01
1.224204014676e-01
1.224038526899e-01
1.223974318170e-01
1.223947639999e-01
1.223943679776e-01
1.223982479758e-01
1.223994567614e-01
1.224037029464e-01
1.224036703513e-01
1.223979228127e-01
1.223971871957e-01
1.223909631669e-01
1.223929323252e-01
1.224029847528e-01
1.223939417272e-01
1.223899475950e-01
1.224006184514e-01
1.223999405095e-01
1.223941365373e-01
1.222589485355e-01
1.224008615046e-01
1.223935203468e-01
1.224006474999e-01
1.223981724815e-01
1.223907005091e-01
1.223958820139e-01
1.223856798342e-01
1.223971943327e-01
1.223972300814e-01
1.223929624693e-01
1.223934764716e-01
1.223925713853e-01
1.224010787663e-01
1.224002062069e-01
1.223849649245e-01
1.223918673046e-01
1.223942366163e-01
1.223945906862e-01
1.223918974658e-01
1.223918783127e-01
1.223901875969e-01
1.224032956939e-01
1.223914222860e-01
1.223931561049e-01
1.223931494000e-01
1.223921201633e-01
1.223985196487e-01
1.223885976477e-01
1.223934626378e-01
1.223926815741e-01
1.223976096380e-01
1.223955473666e-01
1.224022473431e-01
1.223936979180e-01
1.223828417046e-01
1.224028182501e-01
1.223942821858e-01
1.223940776379e-01
1.223925428620e-01
1.223960905000e-01
1.224014468547e-01
1.223846761747e-01
1.223940497872e-01
1.223993385271e-01
1.224035791848e-01
1.223959707262e-01
1.223952039936e-01
1.224857672523e-01
1.223933975464e-01
1.223956528705e-01
1.223947569434e-01
1.223880487981e-01
1.223844978249e-01
1.223833518293e-01
1.223891345283e-01
1.223876489629e-01
1.223950329678e-01
1.223946910625e-01
1.223997284499e-01
1.223926921063e-01
1.224032741703e-01
1.224036473718e-01
1.223927651622e-01
1.223468364001e-01
1.223904748945e-01
1.223917628230e-01
1.224024709206e-01
1.223870932279e-01
1.223844715150e-01
1.223910805015e-01
SCALARS 2-Ca double 1
LOOKUP_TABLE default
9.970358361137e-06
5.049979674123e-02
1.285586643837e-01
1.660390392146e-01
1.839548023771e-01
1.510593535642e-01
1.361882399792e-01
1.284173285930e-01
1.248132057811e-01
1.232815110531e-01
1.227047683912e-01
1.224896100605e-01
1.224245705323e-01
1.224033648054e-01
1.223963969171e-01
1.223948016821e-01
1.223983595385e-01
1.223994846418e-01
1.224037097341e-01
1.224036719650e-01
1.223979231882e-01
1.223971872813e-01
1.223909631861e-01
1.223929323295e-01
1.224029847537e-01
1.223939417274e-01
1.223899475950e-01
1.224006184514e-01
1.223999405095e-01
1.223941365373e-01
1.222589485355e-01
1.224008615046e-01
1.223935203468e-01
1.224006474999e-01
1.223981724815e-01
1.223907005091e-01
1.223958820139e-01
1.223856798342e-01
1.223971943327e-01
1.223972300814e-01
1.223929624693e-01
1.223934764716e-01
1.223925713853e-01
1.224010787663e-01
1.224002062069e-01
1.223849649245e-01
1.223918673046e-01
1.223942366163e-01
1.223945906862e-01
1.223918974658e-01
1.223918783127e-01
1.223901875969e-01
1.224032956939e-01
1.223914222860e-01
1.223931561049e-01
1.223931494000e-01
1.223921201633e-01
1.223985196487e-01
1.223885976477e-01
1.223934626378e-01
1.223926815741e-01
1.223976096380e-01
1.223955473666e-01
1.224022473431e-01
1.223936979180e-01
1.223828417046e-01
1.224028182501e-01
1.223942821858e-01
1.223940776379e-01
1.223925428620e-01
1.223960905000e-01
1.224014468547e-01
1.223846761747e-01
1.223940497872e-01
1.223993385271e-01
1.224035791848e-01
1.223959707262e-01
1.223952039936e-01
1.224857672523e-01
1.223933975464e-01
1.223956528705e-01
1.223947569434e-01
1.223880487981e-01
1.223844978249e-01
1.223833518293e-01
1.223891345283e-01
1.223876489629e-01
1.223950329678e-01
1.223946910625e-01
1.223997284499e-01
1.223926921063e-01
1.224032741703e-01
1.224036473718e-01
1.223927651622e-01
1.223468364001e-01
1.223904748945e-01
1.223917628230e-01
1.224024709206e-01
1.223870932279e-01
1.223844715150e-01
1.223910805015e-01
SCALARS 3-Cl double 1
LOOKUP_TABLE default
3.988143344455e+00
3.417329808325e+00
2.632443617946e+00
1.806305348908e+00
1.102960430664e+00
6.020049451979e-01
2.959346278689e-01
1.322130887914e-01
5.419473311102e-02
2.057411095267e-02
7.301237396244e-03
2.446899784264e-03
7.862889280118e-04
2.505638977732e-04
8.643186434019e-05
3.839028188887e-05
2.488724610219e-05
2.122678806405e-05
2.026614475586e-05
2.002128331608e-05
1.996049351051e-05
1.994575834732e-05
1.994226355927e-05
1.994145103341e-05
1.994126554489e-05
1.994122390000e-05
1.994121469809e-05
1.994121269668e-05
1.994121226630e-05
1.994121217799e-05
1.994121208879e-05
1.994121215175e-05
1.994121214721e-05
1.994121215006e-05
1.994121214914e-05
1.994121214594e-05
1.994121214851e-05
1.994121214585e-05
1.994121214859e-05
1.994121214841e-05
1.994121214602e-05
1.994121215005e-05
1.994121214657e-05
1.994121215190e-05
1.994121215065e-05
1.994121214379e-05
1.994121214571e-05
1.994121215336e-05
1.994121213801e-05
1.994121214871e-05
1.994121215104e-05
1.994121214940e-05
1.994121215004e-05
1.994121214863e-05
1.994121214735e-05
1.994121214497e-05
1.994121215025e-05
1.994121214873e-05
1.994121214616e-05
1.994121215429e-05
1.994121214411e-05
1.994121214691e-05
1.994121214734e-05
1.994121215329e-05
1.994121214531e-05
1.994121214513e-05
1.994121215152e-05
1.994121214668e-05
1.994121214963e-05
1.994121214553e-05
1.994121214912e-05
1.994121215316e-05
1.994121213807e-05
1.994121215046e-05
1.994121215115e-05
1.994121215010e-05
1.994121214889e-05
1.994121214727e-05
1.994121218925e-05
1.994121214878e-05
1.994121214507e-05
1.994121215038e-05
1.994121214438e-05
1.994121214421e-05
1.994121214624e-05
1.994121214576e-05
1.994121214571e-05
1.994121214935e-05
1.994121214842e-05
1.994121214756e-05
1.994121214772e-05
1.994121215189e-05
1.994121215188e-05
1.994121214780e-05
1.994121212803e-05
1.994121214455e-05
1.994121214648e-05
1.994121215046e-05
1.994121214414e-05
1.994121214509e-05
1.994121214763e-05
SCALARS 4-H double 1
LOOKUP_TABLE default
2.701109245634e-04
7.424295040756e-02
1.541259718594e-01
1.493273641252e-01
1.559990014982e-01
1.633280313683e-01
1.652546175264e-01
1.659881422622e-01
1.661573765891e-01
1.661473327313e-01
1.661159842093e-01
1.661126860528e-01
1.661162888840e-01
1.661061952955e-01
1.661072842314e-01
1.660979469692e-01
1.661130069973e-01
1.660979379047e-01
1.661107222669e-01
1.661082950719e-01
1.661089262445e-01
1.661022002896e-01
1.661096132242e-01
1.661157820027e-01
1.661088755525e-01
1.661167253312e-01
1.661044901623e-01
1.661075987840e-01
1.661090856737e-01
1.660947080314e-01
1.660344833996e-01
1.661105290476e-01
1.661004091759e-01
1.661054093832e-01
1.661036214587e-01
1.661077671115e-01
1.660936583459e-01
1.660948820548e-01
1.661133739442e-01
1.660959375535e-01
1.661086499099e-01
1.661030898534e-01
1.661064505035e-01
1.661014112318e-01
1.660991936694e-01
1.660929135858e-01
1.661070545813e-01
1.660982254914e-01
1.661126436672e-01
1.660902482726e-01
1.660928539940e-01
1.660938812605e-01
1.661079439000e-01
1.660956105141e-01
1.661006470419e-01
1.661071021142e-01
1.660903242809e-01
1.661029594669e-01
1.660903662908e-01
1.661135570264e-01
1.661020701901e-01
1.661069300408e-01
1.661036976455e-01
1.661110507310e-01
1.661068949089e-01
1.661011633120e-01
1.661125173709e-01
1.661017631245e-01
1.660936091606e-01
1.661065120950e-01
1.661025190088e-01
1.661103479460e-01
1.660973860874e-01
1.661082404335e-01
1.661057664585e-01
1.661089847013e-01
1.661165225686e-01
1.661051004220e-01
1.661485434968e-01
1.661070268198e-01
1.660980692741e-01
1.661031758342e-01
1.661045440971e-01
1.660957993984e-01
1.660972097903e-01
1.660961528268e-01
1.660918008076e-01
1.660964102086e-01
1.660980379583e-01
1.661108424150e-01
1.661084886048e-01
1.661115393100e-01
1.661108662386e-01
1.661077072190e-01
1.660829713529e-01
1.661011544286e-01
1.660956203123e-01
1.661122567150e-01
1.660956959707e-01
1.660972514406e-01
1.661073567501e-01
SCALARS 5-Mg double 1
LOOKUP_TABLE default
1.994071672227e+00
1.705105717011e+00
1.307303822704e+00
8.509442029181e-01
4.868171934780e-01
2.740371859319e-01
1.357945079317e-01
6.114643762468e-02
2.522368508993e-02
9.625114490728e-03
3.430596870662e-03
1.154241299262e-03
3.724266215675e-04
1.193489604801e-04
4.158301498310e-05
1.876143647548e-05
1.233206038981e-05
1.058551361090e-05
1.012628463445e-05
1.000902788185e-05
9.979871291660e-06
9.972793528656e-06
9.971112594906e-06
9.970721290530e-06
9.970631855774e-06
9.970611754019e-06
9.970607307708e-06
9.970606339730e-06
9.970606131380e-06
9.970606088636e-06
9.970606044323e-06
9.970606075860e-06
9.970606073602e-06
9.970606075030e-06
9.970606074569e-06
9.970606072970e-06
9.970606074254e-06
9.970606072923e-06
9.970606074296e-06
9.970606074206e-06
9.970606073011e-06
9.970606075026e-06
9.970606073283e-06
9.970606075949e-06
9.970606075326e-06
9.970606071896e-06
9.970606072856e-06
9.970606076682e-06
9.970606069004e-06
9.970606074357e-06
9.970606075522e-06
9.970606074701e-06
9.970606075022e-06
9.970606074317e-06
9.970606073677e-06
9.970606072487e-06
9.970606075127e-06
9.970606074365e-06
9.970606073080e-06
9.970606077143e-06
9.970606072055e-06
9.970606073454e-06
9.970606073672e-06
9.970606076646e-06
9.970606072657e-06
9.970606072565e-06
9.970606075761e-06
9.970606073341e-06
9.970606074816e-06
9.970606072763e-06
9.970606074560e-06
9.970606076582e-06
9.970606069037e-06
9.970606075228e-06
9.970606075574e-06
9.970606075051e-06
9.970606074444e-06
9.970606073636e-06
9.970606094626e-06
9.970606074392e-06
9.970606072537e-06
9.970606075191e-06
9.970606072191e-06
9.970606072103e-06
9.970606073121e-06
9.970606072878e-06
9.970606072857e-06
9.970606074673e-06
9.970606074209e-06
9.970606073780e-06
9.970606073859e-06
9.970606075946e-06
9.970606075942e-06
9.970606073902e-06
9.970606064017e-06
9.970606072277e-06
9.970606073239e-06
9.970606075230e-06
9.970606072069e-06
9.970606072545e-06
9.970606073814e-06
SCALARS 6-O double 1
LOOKUP_TABLE default
2.010568337471e-02
2.235706869702e-01
5.169326563435e-01
5.342799694267e-01
5.856510463502e-01
6.262666544046e-01
6.407682165152e-01
6.468284782546e-01
6.488712034747e-01
6.494194303924e-01
6.495966454019e-01
6.496204382266e-01
6.496473325161e-01
6.496471347606e-01
6.496470630047e-01
6.496433685679e-01
6.496631463299e-01
6.496594029153e-01
6.496785768666e-01
6.496772765471e-01
6.496603522097e-01
6.496547830589e-01
6.496398175422e-01
6.496488094892e-01
6.496755135556e-01
6.496523093445e-01
6.496342093994e-01
6.496677762685e-01
6.496664859288e-01
6.496418851958e-01
6.492062081803e-01
6.496699705914e-01
6.496428871437e-01
6.496667687544e-01
6.496584496968e-01
6.496381066057e-01
6.496465967529e-01
6.496166020818e-01
6.496603914876e-01
6.496517805578e-01
6.496453338351e-01
6.496440958488e-01
6.496430609060e-01
6.496660634566e-01
6.496623369992e-01
6.496134730685e-01
6.496412506830e-01
6.496439441779e-01
6.496522152861e-01
6.496329380213e-01
6.496341834733e-01
6.496296249726e-01
6.496759806049e-01
6.496341936578e-01
6.496419133649e-01
6.496451207432e-01
6.496336441689e-01
6.496591602098e-01
6.496230975742e-01
6.496492880180e-01
6.496412013131e-01
6.496584154362e-01
6.496506124127e-01
6.496743889626e-01
6.496466626850e-01
6.496112282784e-01
6.496768349910e-01
6.496458496347e-01
6.496411590279e-01
6.496430061338e-01
6.496516525605e-01
6.496716361312e-01
6.496148429565e-01
6.496483911165e-01
6.496630203622e-01
6.496773514311e-01
6.496582949893e-01
6.496502837038e-01
6.499436954509e-01
6.496458275574e-01
6.496481147394e-01
6.496479802934e-01
6.496285399574e-01
6.496135146524e-01
6.496107818863e-01
6.496276015236e-01
6.496209688073e-01
6.496454255389e-01
6.496452137164e-01
6.496667280934e-01
6.496444421691e-01
6.496777137244e-01
6.496784967830e-01
6.496442705911e-01
6.494941161813e-01
6.496341233856e-01
6.496352201205e-01
6.496756626268e-01
6.496212491482e-01
6.496141617772e-01
6.496390414251e-01
SCALARS 7-Sn double 1
LOOKUP_TABLE default
0.000000000000e+00
0.000000000000e+00
0.000000000000e+00
0.000000000000e+00
0.000000000000e+00
0.000000000000e+00
0.000000000000e+00
0.000000000000e+00
0.000000000000e+00
0.000000000000e+00
0.000000000000e+00
0.000000000000e+00
0.000000000000e+00
0.000000000000e+00
0.000000000000e+00
0.000000000000e+00
0.000000000000e+00
0.000000000000e+00
0.000000000000e+00
0.000000000000e+00
0.000000000000e+00
0.000000000000e+00
0.000000000000e+00
0.000000000000e+00
0.000000000000e+00
0.000000000000e+00
0.000000000000e+00
0.000000000000e+00
0.000000000000e+00
0.000000000000e+00
0.000000000000e+00
0.000000000000e+00
0.000000000000e+00
0.000000000000e+00
0.000000000000e+00
0.000000000000e+00
0.000000000000e+00
0.000000000000e+00
0.000000000000e+00
0.000000000000e+00
0.000000000000e+00
0.000000000000e+00
0.000000000000e+00
0.000000000000e+00
0.000000000000e+00
0.000000000000e+00
0.000000000000e+00
0.000000000000e+00
0.000000000000e+00
0.000000000000e+00
0.000000000000e+00
0.000000000000e+00
0.000000000000e+00
0.000000000000e+00
0.000000000000e+00
0.000000000000e+00
0.000000000000e+00
0.000000000000e+00
0.000000000000e+00
0.000000000000e+00
0.000000000000e+00
0.000000000000e+00
0.000000000000e+00
0.000000000000e+00
0.000000000000e+00
0.000000000000e+00
0.000000000000e+00
0.000000000000e+00
0.000000000000e+00
0.000000000000e+00
0.000000000000e+00
0.000000000000e+00
0.000000000000e+00
0.000000000000e+00
0.000000000000e+00
0.000000000000e+00
0.000000000000e+00
0.000000000000e+00
0.000000000000e+00
0.000000000000e+00
0.000000000000e+00
0.000000000000e+00
0.000000000000e+00
0.000000000000e+00
0.000000000000e+00
0.000000000000e+00
0.000000000000e+00
0.000000000000e+00
0.000000000000e+00
0.000000000000e+00
0.000000000000e+00
0.000000000000e+00
0.000000000000e+00
0.000000000000e+00
0.000000000000e+00
0.000000000000e+00
0.000000000000e+00
0.000000000000e+00
0.000000000000e+00
0.000000000000e+00
0.000000000000e+00
SCALARS 8-Zz double 1
LOOKUP_TABLE default
1.035722930241e-15
3.036030533414e-16
-3.600584162455e-16
-4.865366504816e-16
6.015525872434e-17
1.547268187811e-16
2.369466674848e-17
-5.484283639642e-17
4.593176511071e-17
8.848727177712e-18
-4.182435988035e-18
-1.909845124706e-17
-4.644790002066e-17
3.095202806397e-17
-4.435560901377e-17
3.701523893337e-18
-1.241858032461e-17
2.908960121380e-17
-1.192805734985e-17
2.014035077634e-17
-1.703117614683e-17
-3.751525014001e-18
-1.492626993237e-17
-5.489347577215e-18
-7.734784226994e-18
-3.438811068339e-18
-1.553659939422e-17
2.432635824058e-17
4.170101234988e-17
2.016783454615e-18
-2.811396611254e-17
-2.930609904334e-17
8.819679819453e-18
4.299402113433e-17
1.252633871229e-19
-1.963284396279e-17
-4.149234737132e-18
-3.574413435647e-17
3.385109679026e-17
1.724195648531e-17
1.120120166919e-17
-1.646531429436e-17
2.492900817600e-17
2.351916662068e-17
-1.322049898125e-17
1.307739338005e-18
2.102041342016e-17
1.511428765987e-17
-9.784983492587e-18
-4.684378568059e-17
-2.754822697792e-17
2.882897307183e-18
3.353862811919e-17
1.003928106376e-17
2.413834053370e-17
1.889476792900e-17
-4.666413722145e-19
-7.313898021181e-18
-5.372637415322e-18
3.056823653512e-17
3.149359445917e-17
1.645921358946e-17
-4.480958916189e-17
-4.964933604692e-18
2.753021614548e-17
-5.449786603586e-17
-2.607648948090e-17
3.752369606120e-17
-1.346702505826e-17
3.239645042374e-17
-4.363724526845e-18
-2.895083355237e-18
1.777864846489e-17
-5.050904261137e-17
2.670841659875e-17
-4.551053990615e-17
-3.202795655856e-17
7.600063239256e-18
-4.601194607728e-17
3.754544704160e-18
3.780127734923e-18
1.433815129984e-19
3.154151093806e-17
3.046254742231e-17
-1.644074291499e-18
-2.868013466146e-18
2.313451665521e-17
2.623800444359e-17
-2.329095795299e-17
3.617453947305e-17
-1.652026646557e-17
-3.790520371337e-18
4.125268837467e-17
2.036189162084e-17
2.036124778775e-17
9.129895226901e-18
2.485210579607e-17
5.108912921438e-18
2.093855996230e-17
4.987601185135e-17
2.866896028782e-17
SCALARS C double 1
LOOKUP_TABLE default
 3.190559220786e-06
 1.502107652503e-02
 8.181971946491e-02
 1.045504160256e-01
 1.050618292108e-01
 1.083182621440e-01
 1.089223216614e-01
 1.089088914548e-01
 1.087967571686e-01
 1.087093226262e-01
 1.086685492163e-01
 1.086466794046e-01
 1.086458686437e-01
 1.086383994134e-01
 1.086372883374e-01
 1.086418237623e-01
 1.086481929779e-01
 1.086319970385e-01
 1.086377850338e-01
 1.086438376619e-01
 1.086362974888e-01
 1.086397906464e-01
 1.086383516419e-01
 1.086414025849e-01
 1.086361939191e-01
 1.086392583063e-01
 1.086426998280e-01
 1.086381340315e-01
 1.086354629136e-01
 1.086516876936e-01
 1.086316364053e-01
 1.086382401184e-01
 1.086423991380e-01
 1.086362264585e-01
 1.086407176544e-01
 1.086362701047e-01
 1.086444934553e-01
 1.086378450924e-01
 1.086377192282e-01
 1.086429712737e-01
 1.086308031979e-01
 1.086461073139e-01
 1.086381924469e-01
 1.086409902127e-01
 1.086369489801e-01
 1.086412233494e-01
 1.086374384237e-01
 1.086483100148e-01
 1.086216592112e-01
 1.086488863590e-01
 1.086388482867e-01
 1.086401386232e-01
 1.086417485046e-01
 1.086383744359e-01
 1.086404231656e-01
 1.086372740894e-01
 1.086405026791e-01
 1.086388919030e-01
 1.086377269292e-01
 1.086507793493e-01
 1.086338159867e-01
 1.086365077535e-01
 1.086383600137e-01
 1.086420230307e-01
 1.086374921600e-01
 1.086415580836e-01
 1.086378660723e-01
 1.086380626008e-01
 1.086413223425e-01
 1.086403364494e-01
 1.086387063149e-01
 1.086361597228e-01
 1.086425424225e-01
 1.086383701872e-01
 1.086397169582e-01
 1.086392363718e-01
 1.086392289292e-01
 1.086401507913e-01
 1.086367334698e-01
 1.086462794491e-01
 1.086256442222e-01
 1.086482566283e-01
 1.086398033909e-01
 1.086387619607e-01
 1.086402107941e-01
 1.086413188875e-01
 1.086392686424e-01
 1.086369743981e-01
 1.086439822836e-01
 1.086343297000e-01
 1.086410921603e-01
 1.086398330435e-01
 1.086353099285e-01
 1.086486775460e-01
 1.086386417685e-01
 1.086289445375e-01
 1.086455157177e-01
 1.086380613177e-01
 1.086398473421e-01
 1.086391405971e-01
 1.086425115208e-01
SCALARS Ca double 1
LOOKUP_TABLE default
 3.190559220786e-06
 1.616002258988e-02
 6.290614677545e-02
 8.719475975783e-02
 1.205170620790e-01
 1.169471323411e-01
 1.128176095773e-01
 1.104961215145e-01
 1.093963336825e-01
 1.089211431919e-01
 1.087389560184e-01
 1.086688260968e-01
 1.086524983361e-01
 1.086402979647e-01
 1.086378108696e-01
 1.086419625474e-01
 1.086482286779e-01
 1.086320059602e-01
 1.086377872059e-01
 1.086438381784e-01
 1.086362976089e-01
 1.086397906738e-01
 1.086383516481e-01
 1.086414025863e-01
 1.086361939194e-01
 1.086392583063e-01
 1.086426998280e-01
 1.086381340316e-01
 1.086354629136e-01
 1.086516876936e-01
 1.086316364053e-01
 1.086382401184e-01
 1.086423991380e-01
 1.086362264585e-01
 1.086407176544e-01
 1.086362701047e-01
 1.086444934553e-01
 1.086378450924e-01
 1.086377192282e-01
 1.086429712737e-01
 1.086308031979e-01
 1.086461073139e-01
 1.086381924469e-01
 1.086409902127e-01
 1.086369489801e-01
 1.086412233494e-01
 1.086374384237e-01
 1.086483100148e-01
 1.086216592112e-01
 1.086488863590e-01
 1.086388482867e-01
 1.086401386232e-01
 1.086417485046e-01
 1.086383744359e-01
 1.086404231656e-01
 1.086372740894e-01
 1.086405026791e-01
 1.086388919030e-01
 1.086377269292e-01
 1.086507793493e-01
 1.086338159867e-01
 1.086365077535e-01
 1.086383600137e-01
 1.086420230307e-01
 1.086374921600e-01
 1.086415580836e-01
 1.086378660723e-01
 1.086380626008e-01
 1.086413223425e-01
 1.086403364494e-01
 1.086387063149e-01
 1.086361597228e-01
 1.086425424225e-01
 1.086383701872e-01
 1.086397169582e-01
 1.086392363718e-01
 1.086392289292e-01
 1.086401507913e-01
 1.086367334698e-01
 1.086462794491e-01
 1.086256442222e-01
 1.086482566283e-01
 1.086398033909e-01
 1.086387619607e-01
 1.086402107941e-01
 1.086413188875e-01
 1.086392686424e-01
 1.086369743981e-01
 1.086439822836e-01
 1.086343297000e-01
 1.086410921603e-01
 1.086398330435e-01
 1.086353099285e-01
 1.086486775460e-01
 1.086386417685e-01
 1.086289445375e-01
 1.086455157177e-01
 1.086380613177e-01
 1.086398473421e-01
 1.086391405971e-01
 1.086425115208e-01
SCALARS Cl double 1
LOOKUP_TABLE default
 1.276223688314e+00
 1.093551468782e+00
 8.423828362133e-01
 5.780168844228e-01
 3.529465817128e-01
 1.926411016602e-01
 9.469883768654e-02
 4.230807893936e-02
 1.734226961455e-02
 6.583698417227e-03
 2.336389902188e-03
 7.830058986171e-04
 2.516118037573e-04
 8.018023918254e-05
 2.765812480403e-05
 1.228485831329e-05
 7.963898073933e-06
 6.792554556196e-06
 6.485149491868e-06
 6.406794030002e-06
 6.387341346919e-06
 6.382626104186e-06
 6.381507774508e-06
 6.381247765122e-06
 6.381188415157e-06
 6.381175084440e-06
 6.381172136360e-06
 6.381171501787e-06
 6.381171365875e-06
 6.381171324297e-06
 6.381171278659e-06
 6.381171327388e-06
 6.381171321143e-06
 6.381171328281e-06
 6.381171324095e-06
 6.381171324586e-06
 6.381171320572e-06
 6.381171322213e-06
 6.381171325898e-06
 6.381171321980e-06
 6.381171329172e-06
 6.381171319311e-06
 6.381171323811e-06
 6.381171325462e-06
 6.381171327834e-06
 6.381171318899e-06
 6.381171323928e-06
 6.381171318927e-06
 6.381171333725e-06
 6.381171316464e-06
 6.381171324598e-06
 6.381171322723e-06
 6.381171324833e-06
 6.381171324068e-06
 6.381171322559e-06
 6.381171324114e-06
 6.381171323184e-06
 6.381171325391e-06
 6.381171323088e-06
 6.381171317222e-06
 6.381171326275e-06
 6.381171326349e-06
 6.381171324638e-06
 6.381171325423e-06
 6.381171324192e-06
 6.381171318580e-06
 6.381171328052e-06
 6.381171324348e-06
 6.381171322842e-06
 6.381171321892e-06
 6.381171325080e-06
 6.381171329512e-06
 6.381171316030e-06
 6.381171325274e-06
 6.381171325749e-06
 6.381171326769e-06
 6.381171324592e-06
 6.381171323216e-06
 6.381171360510e-06
 6.381171318760e-06
 6.381171333302e-06
 6.381171318135e-06
 6.381171320860e-06
 6.381171320734e-06
 6.381171320048e-06
 6.381171320440e-06
 6.381171321586e-06
 6.381171326178e-06
 6.381171320640e-06
 6.381171328661e-06
 6.381171322073e-06
 6.381171326830e-06
 6.381171330246e-06
 6.381171316531e-06
 6.381171306771e-06
 6.381171329484e-06
 6.381171318199e-06
 6.381171327487e-06
 6.381171320524e-06
 6.381171320732e-06
 6.381171320619e-06
SCALARS H double 1
LOOKUP_TABLE default
 3.542055048139e+04
 3.542037898745e+04
 3.542041853532e+04
 3.542049354083e+04
 3.542061685286e+04
 3.542071705032e+04
 3.542078118217e+04
 3.542081600568e+04
 3.542083256154e+04
 3.542083966429e+04
 3.542084247706e+04
 3.542084350161e+04
 3.542084383557e+04
 3.542084397131e+04
 3.542084400627e+04
 3.542084399817e+04
 3.542084398205e+04
 3.542084405273e+04
 3.542084403721e+04
 3.542084401237e+04
 3.542084403140e+04
 3.542084401609e+04
 3.542084400837e+04
 3.542084399958e+04
 3.542084404240e+04
 3.542084401033e+04
 3.542084398888e+04
 3.542084402962e+04
 3.542084403902e+04
 3.542084396164e+04
 3.542084375792e+04
 3.542084402948e+04
 3.542084399826e+04
 3.542084403778e+04
 3.542084401429e+04
 3.542084401655e+04
 3.542084399474e+04
 3.542084400056e+04
 3.542084402375e+04
 3.542084400370e+04
 3.542084404350e+04
 3.542084398245e+04
 3.542084401267e+04
 3.542084401934e+04
 3.542084403442e+04
 3.542084398541e+04
 3.542084401426e+04
 3.542084397538e+04
 3.542084408402e+04
 3.542084396887e+04
 3.542084400968e+04
 3.542084400236e+04
 3.542084402042e+04