# vtk DataFile Version 3.0
Unstructured Grid from OpenGeoSys
ASCII
DATASET UNSTRUCTURED_GRID
FIELD TimesAndCycles 2
TIME 1 1 double
2.000000000000e+04
CYLCE 1 1 long
200
POINTS 101 double
0.000000000000e+00 0.000000000000e+00 0.000000000000e+00
5.000000000000e-03 0.000000000000e+00 0.000000000000e+00
1.000000000000e-02 0.000000000000e+00 0.000000000000e+00
1.500000000000e-02 0.000000000000e+00 0.000000000000e+00
2.000000000000e-02 0.000000000000e+00 0.000000000000e+00
2.500000000000e-02 0.000000000000e+00 0.000000000000e+00
3.000000000000e-02 0.000000000000e+00 0.000000000000e+00
3.500000000000e-02 0.000000000000e+00 0.000000000000e+00
4.000000000000e-02 0.000000000000e+00 0.000000000000e+00
4.500000000000e-02 0.000000000000e+00 0.000000000000e+00
5.000000000000e-02 0.000000000000e+00 0.000000000000e+00
5.500000000000e-02 0.000000000000e+00 0.000000000000e+00
6.000000000000e-02 0.000000000000e+00 0.000000000000e+00
6.500000000000e-02 0.000000000000e+00 0.000000000000e+00
7.000000000000e-02 0.000000000000e+00 0.000000000000e+00
7.500000000000e-02 0.000000000000e+00 0.000000000000e+00
8.000000000000e-02 0.000000000000e+00 0.000000000000e+00
8.500000000000e-02 0.000000000000e+00 0.000000000000e+00
9.000000000000e-02 0.000000000000e+00 0.000000000000e+00
9.500000000000e-02 0.000000000000e+00 0.000000000000e+00
1.000000000000e-01 0.000000000000e+00 0.000000000000e+00
1.050000000000e-01 0.000000000000e+00 0.000000000000e+00
1.100000000000e-01 0.000000000000e+00 0.000000000000e+00
1.150000000000e-01 0.000000000000e+00 0.000000000000e+00
1.200000000000e-01 0.000000000000e+00 0.000000000000e+00
1.250000000000e-01 0.000000000000e+00 0.000000000000e+00
1.300000000000e-01 0.000000000000e+00 0.000000000000e+00
1.350000000000e-01 0.000000000000e+00 0.000000000000e+00
1.400000000000e-01 0.000000000000e+00 0.000000000000e+00
1.450000000000e-01 0.000000000000e+00 0.000000000000e+00
1.500000000000e-01 0.000000000000e+00 0.000000000000e+00
1.550000000000e-01 0.000000000000e+00 0.000000000000e+00
1.600000000000e-01 0.000000000000e+00 0.000000000000e+00
1.650000000000e-01 0.000000000000e+00 0.000000000000e+00
1.700000000000e-01 0.000000000000e+00 0.000000000000e+00
1.750000000000e-01 0.000000000000e+00 0.000000000000e+00
1.800000000000e-01 0.000000000000e+00 0.000000000000e+00
1.850000000000e-01 0.000000000000e+00 0.000000000000e+00
1.900000000000e-01 0.000000000000e+00 0.000000000000e+00
1.950000000000e-01 0.000000000000e+00 0.000000000000e+00
2.000000000000e-01 0.000000000000e+00 0.000000000000e+00
2.050000000000e-01 0.000000000000e+00 0.000000000000e+00
2.100000000000e-01 0.000000000000e+00 0.000000000000e+00
2.150000000000e-01 0.000000000000e+00 0.000000000000e+00
2.200000000000e-01 0.000000000000e+00 0.000000000000e+00
2.250000000000e-01 0.000000000000e+00 0.000000000000e+00
2.300000000000e-01 0.000000000000e+00 0.000000000000e+00
2.350000000000e-01 0.000000000000e+00 0.000000000000e+00
2.400000000000e-01 0.000000000000e+00 0.000000000000e+00
2.450000000000e-01 0.000000000000e+00 0.000000000000e+00
2.500000000000e-01 0.000000000000e+00 0.000000000000e+00
2.550000000000e-01 0.000000000000e+00 0.000000000000e+00
2.600000000000e-01 0.000000000000e+00 0.000000000000e+00
2.650000000000e-01 0.000000000000e+00 0.000000000000e+00
2.700000000000e-01 0.000000000000e+00 0.000000000000e+00
2.750000000000e-01 0.000000000000e+00 0.000000000000e+00
2.800000000000e-01 0.000000000000e+00 0.000000000000e+00
2.850000000000e-01 0.000000000000e+00 0.000000000000e+00
2.900000000000e-01 0.000000000000e+00 0.000000000000e+00
2.950000000000e-01 0.000000000000e+00 0.000000000000e+00
3.000000000000e-01 0.000000000000e+00 0.000000000000e+00
3.050000000000e-01 0.000000000000e+00 0.000000000000e+00
3.100000000000e-01 0.000000000000e+00 0.000000000000e+00
3.150000000000e-01 0.000000000000e+00 0.000000000000e+00
3.200000000000e-01 0.000000000000e+00 0.000000000000e+00
3.250000000000e-01 0.000000000000e+00 0.000000000000e+00
3.300000000000e-01 0.000000000000e+00 0.000000000000e+00
3.350000000000e-01 0.000000000000e+00 0.000000000000e+00
3.400000000000e-01 0.000000000000e+00 0.000000000000e+00
3.450000000000e-01 0.000000000000e+00 0.000000000000e+00
3.500000000000e-01 0.000000000000e+00 0.000000000000e+00
3.550000000000e-01 0.000000000000e+00 0.000000000000e+00
3.600000000000e-01 0.000000000000e+00 0.000000000000e+00
3.650000000000e-01 0.000000000000e+00 0.000000000000e+00
3.700000000000e-01 0.000000000000e+00 0.000000000000e+00
3.750000000000e-01 0.000000000000e+00 0.000000000000e+00
3.800000000000e-01 0.000000000000e+00 0.000000000000e+00
3.850000000000e-01 0.000000000000e+00 0.000000000000e+00
3.900000000000e-01 0.000000000000e+00 0.000000000000e+00
3.950000000000e-01 0.000000000000e+00 0.000000000000e+00
4.000000000000e-01 0.000000000000e+00 0.000000000000e+00
4.050000000000e-01 0.000000000000e+00 0.000000000000e+00
4.100000000000e-01 0.000000000000e+00 0.000000000000e+00
4.150000000000e-01 0.000000000000e+00 0.000000000000e+00
4.200000000000e-01 0.000000000000e+00 0.000000000000e+00
4.250000000000e-01 0.000000000000e+00 0.000000000000e+00
4.300000000000e-01 0.000000000000e+00 0.000000000000e+00
4.350000000000e-01 0.000000000000e+00 0.000000000000e+00
4.400000000000e-01 0.000000000000e+00 0.000000000000e+00
4.450000000000e-01 0.000000000000e+00 0.000000000000e+00
4.500000000000e-01 0.000000000000e+00 0.000000000000e+00
4.550000000000e-01 0.000000000000e+00 0.000000000000e+00
4.600000000000e-01 0.000000000000e+00 0.000000000000e+00
4.650000000000e-01 0.000000000000e+00 0.000000000000e+00
4.700000000000e-01 0.000000000000e+00 0.000000000000e+00
4.750000000000e-01 0.000000000000e+00 0.000000000000e+00
4.800000000000e-01 0.000000000000e+00 0.000000000000e+00
4.850000000000e-01 0.000000000000e+00 0.000000000000e+00
4.900000000000e-01 0.000000000000e+00 0.000000000000e+00
4.950000000000e-01 0.000000000000e+00 0.000000000000e+00
5.000000000000e-01 0.000000000000e+00 0.000000000000e+00
CELLS 100 300
2 0 1
2 2 3
2 4 5
2 6 7
2 8 9
2 10 11
2 12 13
2 14 15
2 16 17
2 18 19
2 20 21
2 22 23
2 24 25
2 26 27
2 28 29
2 30 31
2 32 33
2 34 35
2 36 37
2 38 39
2 40 41
2 42 43
2 44 45
2 46 47
2 48 49
2 50 51
2 52 53
2 54 55
2 56 57
2 58 59
2 60 61
2 62 63
2 64 65
2 66 67
2 68 69
2 70 71
2 72 73
2 74 75
2 76 77
2 78 79
2 80 81
2 82 83
2 84 85
2 86 87
2 88 89
2 90 91
2 92 93
2 94 95
2 96 97
2 98 99
2 1 2
2 3 4
2 5 6
2 7 8
2 9 10
2 11 12
2 13 14
2 15 16
2 17 18
2 19 20
2 21 22
2 23 24
2 25 26
2 27 28
2 29 30
2 31 32
2 33 34
2 35 36
2 37 38
2 39 40
2 41 42
2 43 44
2 45 46
2 47 48
2 49 50
2 51 52
2 53 54
2 55 56
2 57 58
2 59 60
2 61 62
2 63 64
2 65 66
2 67 68
2 69 70
2 71 72
2 73 74
2 75 76
2 77 78
2 79 80
2 81 82
2 83 84
2 85 86
2 87 88
2 89 90
2 91 92
2 93 94
2 95 96
2 97 98
2 99 100

CELL_TYPES 100
3
3
3
3
3
3
3
3
3
3
3
3
3
3
3
3
3
3
3
3
3
3
3
3
3
3
3
3
3
3
3
3
3
3
3
3
3
3
3
3
3
3
3
3
3
3
3
3
3
3
3
3
3
3
3
3
3
3
3
3
3
3
3
3
3
3
3
3
3
3
3
3
3
3
3
3
3
3
3
3
3
3
3
3
3
3
3
3
3
3
3
3
3
3
3
3
3
3
3
3

POINT_DATA 101
SCALARS 1-C double 1
LOOKUP_TABLE default
9.970358361137e-06
3.439320854091e-05
8.160660618694e-05
1.677083067723e-04
3.190328823333e-04
5.783648574042e-04
1.014804168968e-03
1.739332108216e-03
2.929634287779e-03
4.871713044151e-03
8.032706218645e-03
1.317330129607e-02
2.144786870595e-02
3.438635939912e-02
5.407722041369e-02
8.540116652163e-02
1.431228580468e-01
1.425361468033e-01
1.417874755209e-01
1.408422504019e-01
1.396725451528e-01
1.382473546689e-01
1.365258815599e-01
1.344993718907e-01
1.321554792857e-01
1.294846753683e-01
1.265001260723e-01
1.232471790901e-01
1.197574004872e-01
1.161066283555e-01
1.123602429960e-01
1.086088959263e-01
1.049384078789e-01
1.014555868001e-01
9.828067129369e-02
9.529791427188e-02
9.224223761406e-02
9.358988738605e-02
9.556914889000e-02
9.719026358098e-02
9.881096475896e-02
1.005032812958e-01
1.022111362104e-01
1.039532384559e-01
1.056894063633e-01
1.074050028738e-01
1.090778535368e-01
1.106786769738e-01
1.122024198979e-01
1.136278964589e-01
1.149347923565e-01
1.161179773193e-01
1.171711654810e-01
1.180916623955e-01
1.188951617695e-01
1.195710168481e-01
1.201563951153e-01
1.206250456887e-01
1.210083699616e-01
1.213184293324e-01
1.215805335029e-01
1.217698969367e-01
1.219229650709e-01
1.220428830435e-01
1.221322380597e-01
1.222013206596e-01
1.222538069993e-01
1.222868178055e-01
1.223224732968e-01
1.223426108081e-01
1.223501513123e-01
1.223671819073e-01
1.223816621423e-01
1.223843731317e-01
1.223963895900e-01
1.223971125025e-01
1.223997596327e-01
1.223986990878e-01
1.223955231640e-01
1.224036726108e-01
1.223875113718e-01
1.223889884741e-01
1.223972069970e-01
1.223926068604e-01
1.223967519182e-01
1.223986512106e-01
1.223857661833e-01
1.223879846222e-01
1.223963183032e-01
1.223940209348e-01
1.223977637712e-01
1.223981374032e-01
1.223736183965e-01
1.223950506983e-01
1.223872935060e-01
1.223932148314e-01
1.223952712008e-01
1.223963042427e-01
1.223848302946e-01
1.223935546826e-01
1.223986010225e-01
SCALARS 2-Ca double 1
LOOKUP_TABLE default
9.970358361137e-06
2.430031622764e-05
5.190032036683e-05
1.019462008994e-04
1.892658288138e-04
3.376483471840e-04
5.850386636005e-04
9.916525132346e-04
1.652801881853e-03
2.720208215237e-03
4.439022103937e-03
7.204752350492e-03
1.161417211757e-02
1.845722712492e-02
2.880957116762e-02
4.515064205710e-02
7.491079316144e-02
7.579529872553e-02
7.694750216541e-02
7.843350950577e-02
8.033758308803e-02
8.275883409307e-02
8.580944882037e-02
8.963721052704e-02
9.440932227838e-02
1.003173178805e-01
1.075888138868e-01
1.164942608098e-01
1.273262186838e-01
1.404304142434e-01
1.561807078250e-01
1.750097469823e-01
1.974074900139e-01
2.237805742589e-01
2.542769959639e-01
2.919098235315e-01
3.470314539260e-01
3.370060572989e-01
3.171591299968e-01
2.999395865881e-01
2.834027174154e-01
2.675364132828e-01
2.523712520439e-01
2.380553021487e-01
2.246561669648e-01
2.122377489326e-01
2.008303544497e-01
1.904337037108e-01
1.810501574754e-01
1.726463631830e-01
1.651726199472e-01
1.585798547160e-01
1.528061197852e-01
1.477842142481e-01
1.434592692508e-01
1.397466194001e-01
1.366082903009e-01
1.339437773913e-01
1.317127766491e-01
1.298594925001e-01
1.283461767747e-01
1.270904112875e-01
1.260767714547e-01
1.252623861640e-01
1.246095706815e-01
1.240938234174e-01
1.236891318184e-01
1.233675819062e-01
1.231304242529e-01
1.229422907129e-01
1.227920697176e-01
1.226905231292e-01
1.226165633812e-01
1.225538163375e-01
1.225177529206e-01
1.224834273660e-01
1.224607174172e-01
1.224414484201e-01
1.224252944447e-01
1.224242620961e-01
1.224016525410e-01
1.223986340766e-01
1.224037411638e-01
1.223970030936e-01
1.223996896622e-01
1.224006010693e-01
1.223870516527e-01
1.223888264115e-01
1.223968658759e-01
1.223943747618e-01
1.223979908961e-01
1.223982822396e-01
1.223737101545e-01
1.223951084516e-01
1.223873296215e-01
1.223932372711e-01
1.223952850561e-01
1.223963127515e-01
1.223848355218e-01
1.223935580149e-01
1.223986036968e-01
SCALARS 3-Cl double 1
LOOKUP_TABLE default
3.988143344455e+00
3.988114965882e+00
3.988061607998e+00
3.987968517639e+00
3.987814209172e+00
3.987568089574e+00
3.987187498823e+00
3.986614110081e+00
3.985769661612e+00
3.984551031876e+00
3.982824724961e+00
3.980420901605e+00
3.977127164237e+00
3.972682402113e+00
3.966771151962e+00
3.959019036863e+00
3.948989614693e+00
3.936179502891e+00
3.920028179887e+00
3.899915883024e+00
3.875174149730e+00
3.845098345192e+00
3.808964332255e+00
3.766049152767e+00
3.715655279028e+00
3.657137700734e+00
3.589932811328e+00
3.513587798649e+00
3.427789038909e+00
3.332387903244e+00
3.227422332383e+00
3.113132696752e+00
2.989970636210e+00
2.858599928410e+00
2.719888838702e+00
2.574893878560e+00
2.424835711403e+00
2.271067518597e+00
2.115037995657e+00
1.958249414026e+00
1.802214787723e+00
1.648414396675e+00
1.498254485805e+00
1.353029902270e+00
1.213892248427e+00
1.081824790759e+00
9.576248966804e-01
8.418943367765e-01
7.350373343987e-01
6.372658342700e-01
5.486111300457e-01
4.689407313961e-01
3.979791906778e-01
3.353315465461e-01
2.805080621759e-01
2.329490361555e-01
1.920486246747e-01
1.571768100040e-01
1.276988745529e-01
1.029919602744e-01
8.245850873559e-02
6.553656324667e-02
5.170707214802e-02
4.049845096561e-02
3.148874524994e-02
2.430578244513e-02
1.862571827592e-02
1.417037327058e-02
1.070372625363e-02
8.027889189485e-03
5.978837584933e-03
4.422117203177e-03
3.248695877530e-03
2.371080894212e-03
1.719779994191e-03
1.240148478963e-03
8.896365515092e-04
6.354295575988e-04
4.524585725261e-04
3.217490237549e-04
2.290696753577e-04
1.638423920185e-04
1.182737313283e-04
8.667178929879e-05
6.491516132422e-05
5.004487349093e-05
3.995428015139e-05
3.315593782752e-05
2.860817599250e-05
2.558738966425e-05
2.359493217640e-05
2.228989184594e-05
2.144101725968e-05
2.089265641680e-05
2.054084510573e-05
2.031667311140e-05
2.017482334823e-05
2.008577910456e-05
2.003071112258e-05
1.999871030469e-05
1.998755882738e-05
SCALARS 4-H double 1
LOOKUP_TABLE default
2.701109245634e-04
2.985309675001e-04
3.524153714655e-04
4.741111280290e-04
7.281551765076e-04
1.208199383787e-03
2.048767132041e-03
3.456686467512e-03
5.753944144336e-03
9.434328238135e-03
1.524231412817e-02
2.424970638168e-02
3.779349040759e-02
5.710121034613e-02
8.322054964068e-02
1.192764114583e-01
1.746138244955e-01
1.740995720111e-01
1.734417079732e-01
1.726082728687e-01
1.715726933835e-01
1.703046071144e-01
1.687637196887e-01
1.669369245449e-01
1.648064030501e-01
1.623551725504e-01
1.595852291041e-01
1.565322194947e-01
1.531951152065e-01
1.496571492495e-01
1.459675658222e-01
1.422083271032e-01
1.384309142586e-01
1.347416637679e-01
1.313050312077e-01
1.279388533203e-01
1.242496509123e-01
1.258713719626e-01
1.283197488093e-01
1.303769346302e-01
1.324733465317e-01
1.346497546436e-01
1.368921565587e-01
1.391775200615e-01
1.414605935124e-01
1.437549099433e-01
1.460164688907e-01
1.481971376016e-01
1.503045269627e-01
1.522735241546e-01
1.541366414139e-01
1.558603104537e-01
1.574073889096e-01
1.587936112802e-01
1.600256561747e-01
1.610908457572e-01
1.620194329529e-01
1.628013612930e-01
1.634562215934e-01
1.640095027299e-01
1.644593935223e-01
1.648181271626e-01
1.650901324839e-01
1.653334685130e-01
1.655027418473e-01
1.656692067656e-01
1.657560132982e-01
1.658539059950e-01
1.659171389783e-01
1.659799363214e-01
1.659973418889e-01
1.660332226026e-01
1.660609443063e-01
1.660794515749e-01
1.660771418681e-01
1.660837185436e-01
1.660896548368e-01
1.660901552773e-01
1.660867656386e-01
1.661065636913e-01
1.661048442293e-01
1.660962378935e-01
1.661069737692e-01
1.661071631525e-01
1.660993055627e-01
1.660934578106e-01
1.660990564609e-01
1.660929297911e-01
1.661071641902e-01
1.660964083272e-01
1.661008408619e-01
1.661058510358e-01
1.661215664405e-01
1.660984669965e-01
1.660902172364e-01
1.661109513867e-01
1.661115369098e-01
1.660940448571e-01
1.661051147623e-01
1.661126309486e-01
1.661113870653e-01
SCALARS 5-Mg double 1
LOOKUP_TABLE default
1.994071672227e+00
1.994067575833e+00
1.994060510285e+00
1.994050020925e+00
1.994036871639e+00
1.994024761297e+00
1.994023514917e+00
1.994054734635e+00
1.994161663212e+00
1.994427020767e+00
1.995006046595e+00
1.996178999748e+00
1.998397278707e+00
2.002270333330e+00
2.008653225227e+00
2.019760042896e+00
2.042706872232e+00
2.034830599523e+00
2.024854063299e+00
2.012366682408e+00
1.996922036930e+00
1.978037693172e+00
1.955198598867e+00
1.927886737747e+00
1.895573796521e+00
1.857736207855e+00
1.813877717849e+00
1.763546817605e+00
1.706325701258e+00
1.641870165734e+00
1.569890701363e+00
1.490165497320e+00
1.402516235970e+00
1.306974976746e+00
1.203948094681e+00
1.090835030021e+00
9.576286393896e-01
8.921175893857e-01
8.359290167219e-01
7.763753840057e-01
7.165156412053e-01
6.571740663508e-01
5.989671270690e-01
5.424128874423e-01
4.879793636121e-01
4.360796493206e-01
3.870599474273e-01
3.411921416511e-01
2.986709296219e-01
2.596144504110e-01
2.240677374321e-01
1.920084883013e-01
1.633546410346e-01
1.379732214205e-01
1.156899236065e-01
9.629891552568e-02
7.957241715164e-02
6.526967329933e-02
5.314503058882e-02
4.295491696936e-02
3.446361109590e-02
2.744776727239e-02
2.169972969015e-02
1.702972236219e-02
1.326704000304e-02
1.026038846465e-02
7.877534318739e-03
6.004422534522e-03
4.543912170669e-03
3.414264689843e-03
2.547500387046e-03
1.887717379593e-03
1.389446699825e-03
1.016097241252e-03
7.385266664171e-04
5.337593759646e-04
3.838604912738e-04
2.749654464992e-04
1.964580055609e-04
1.402850266399e-04
1.003936684274e-04
7.227559350183e-05
5.260269888919e-05
3.893966142743e-05
2.951983666939e-05
2.307257803297e-05
1.869167063600e-05
1.573617961858e-05
1.375651523558e-05
1.243986782830e-05
1.157034113445e-05
1.100010955624e-05
1.062875070853e-05
1.038857485472e-05
1.023430700916e-05
1.013589686080e-05
1.007355641278e-05
1.003438069841e-05
1.001012834102e-05
9.996022840569e-06
9.991105103217e-06
SCALARS 6-O double 1
LOOKUP_TABLE default
2.010568337471e-02
2.019443886978e-02
2.036542218479e-02
2.068876393089e-02
2.127670316055e-02
2.230579609870e-02
2.405252377003e-02
2.695586889685e-02
3.171340328866e-02
3.943466850561e-02
5.189932310419e-02
7.193297447127e-02
1.036767841743e-01
1.523461259381e-01
2.247443782772e-01
3.370929940548e-01
5.383781334616e-01
5.369372508354e-01
5.350890223394e-01
5.327415725142e-01
5.298279144966e-01
5.262715589037e-01
5.219625520714e-01
5.169006120650e-01
5.110711799599e-01
5.044662063733e-01
4.971515520752e-01
4.893014638806e-01
4.810242432888e-01
4.725957151103e-01
4.642349411953e-01
4.562440471982e-01
4.488859191004e-01
4.425042859322e-01
4.375030249218e-01
4.333962704218e-01
4.291371285807e-01
4.409104360417e-01
4.550937456413e-01
4.680412492729e-01
4.809732709238e-01
4.940596683642e-01
5.070619245099e-01
5.199663766350e-01
5.325780243392e-01
5.448154673302e-01
5.565542911307e-01
5.676554953396e-01
5.780895253393e-01
5.877507197450e-01
5.965929739533e-01
6.045900665445e-01
6.117169563653e-01
6.179911941124e-01
6.234852335019e-01
6.281859780680e-01
6.322473174011e-01
6.356138200297e-01
6.384180478777e-01
6.407369587166e-01
6.426724679797e-01
6.441816256428e-01
6.453993423625e-01
6.463853069980e-01
6.471435754918e-01
6.477573971927e-01
6.482139513858e-01
6.485624932565e-01
6.488571339916e-01
6.490694048431e-01
6.491929737116e-01
6.493320875965e-01
6.494422159823e-01
6.494991127818e-01
6.495633296228e-01
6.495903801186e-01
6.496170704549e-01
6.496255841065e-01
6.496225995327e-01
6.496628319553e-01
6.496176613382e-01
6.496207263992e-01
6.496528016583e-01
6.496405188525e-01
6.496500048862e-01
6.496534485171e-01
6.496180470586e-01
6.496219451675e-01
6.496542682339e-01
6.496421342565e-01
6.496556687442e-01
6.496593534809e-01
6.495936922557e-01
6.496464642815e-01
6.496190836857e-01
6.496472248773e-01
6.496536929804e-01
6.496480500368e-01
6.496191659729e-01
6.496490982859e-01
6.496636159679e-01
SCALARS 7-Sn double 1
LOOKUP_TABLE default
0.000000000000e+00
0.000000000000e+00
0.000000000000e+00
0.000000000000e+00
0.000000000000e+00
0.000000000000e+00
0.000000000000e+00
0.000000000000e+00
0.000000000000e+00
0.000000000000e+00
0.000000000000e+00
0.000000000000e+00
0.000000000000e+00
0.000000000000e+00
0.000000000000e+00
0.000000000000e+00
0.000000000000e+00
0.000000000000e+00
0.000000000000e+00
0.000000000000e+00
0.000000000000e+00
0.000000000000e+00
0.000000000000e+00
0.000000000000e+00
0.000000000000e+00
0.000000000000e+00
0.000000000000e+00
0.000000000000e+00
0.000000000000e+00
0.000000000000e+00
0.000000000000e+00
0.000000000000e+00
0.000000000000e+00
0.000000000000e+00
0.000000000000e+00
0.000000000000e+00
0.000000000000e+00
0.000000000000e+00
0.000000000000e+00
0.000000000000e+00
0.000000000000e+00
0.000000000000e+00
0.000000000000e+00
0.000000000000e+00
0.000000000000e+00
0.000000000000e+00
0.000000000000e+00
0.000000000000e+00
0.000000000000e+00
0.000000000000e+00
0.000000000000e+00
0.000000000000e+00
0.000000000000e+00
0.000000000000e+00
0.000000000000e+00
0.000000000000e+00
0.000000000000e+00
0.000000000000e+00
0.000000000000e+00
0.000000000000e+00
0.000000000000e+00
0.000000000000e+00
0.000000000000e+00
0.000000000000e+00
0.000000000000e+00
0.000000000000e+00
0.000000000000e+00
0.000000000000e+00
0.000000000000e+00
0.000000000000e+00
0.000000000000e+00
0.000000000000e+00
0.000000000000e+00
0.000000000000e+00
0.000000000000e+00
0.000000000000e+00
0.000000000000e+00
0.000000000000e+00
0.000000000000e+00
0.000000000000e+00
0.000000000000e+00
0.000000000000e+00
0.000000000000e+00
0.000000000000e+00
0.000000000000e+00
0.000000000000e+00
0.000000000000e+00
0.000000000000e+00
0.000000000000e+00
0.000000000000e+00
0.000000000000e+00
0.000000000000e+00
0.000000000000e+00
0.000000000000e+00
0.000000000000e+00
0.000000000000e+00
0.000000000000e+00
0.000000000000e+00
0.000000000000e+00
0.000000000000e+00
0.000000000000e+00
SCALARS 8-Zz double 1
LOOKUP_TABLE default
1.035722930241e-15
-8.327141593882e-16
6.995477019238e-16
1.268565907199e-16
8.723156457589e-16
1.766535330773e-15
9.566826692977e-17
-1.107738876692e-16
-5.970830218169e-17
-4.938173254409e-16
-6.463789350242e-17
1.902410385636e-16
7.127403105558e-16
-2.656234786609e-16
4.848852668494e-16
-2.008587507501e-16
5.784622047732e-16
1.465313241581e-16
5.898258477584e-16
2.428250461936e-16
-2.424807812526e-17
-1.127443290435e-16
-2.193297743671e-16
3.810242095983e-16
9.444020611651e-16
-4.531812306871e-16
3.773078132067e-16
-2.745964452885e-16
4.026796860471e-16
-6.042245590491e-17
-6.615371060558e-16
-1.245732954733e-15
-3.360009851316e-16
3.387559172865e-16
-1.416477594153e-16
-8.632366694870e-16
-1.447992776957e-16
-1.655022379772e-16
-1.513981567662e-16
3.843476429115e-16
5.117914094346e-17
-4.537417878046e-18
-3.841517509786e-17
1.034206087125e-18
-2.181881106836e-16
-1.045703279990e-16
-1.876705390486e-17
-1.146446932051e-16
2.170439514299e-16
-9.656847157814e-17
-1.319481831131e-16
1.094696094417e-16
-3.369748818602e-17
5.611853543014e-17
-1.134280949684e-16
3.261323111659e-17
1.555763266397e-17
-1.266236440828e-17
-4.115874566407e-17
3.086798566033e-17
7.571431953048e-17
-3.686824219332e-18
-2.375430490689e-17
2.028431546875e-17
3.615326472582e-17
1.070752139781e-17
1.268348527908e-17
6.682384850336e-18
1.030125822150e-17
1.500393896358e-17
-1.775744933088e-18
8.233048043238e-18
2.351110402648e-18
7.818461780238e-18
-4.702420090128e-18
2.407883575143e-17
5.398802962605e-19
2.108158887918e-17
2.586535665798e-17
4.170372524750e-18
-1.585345200077e-17
1.127520704580e-17
1.455783741003e-17
-3.664545739377e-17
-1.425301759920e-17
-3.242994287581e-17
-2.758450913994e-17
2.606211152926e-17
-3.649422786601e-18
-2.570965103090e-18
-2.382605578021e-17
2.698699430552e-17
-2.115850662559e-18
-1.334947187398e-19
-5.686010479858e-18
7.034737867767e-18
-4.639354542306e-17
6.403638508281e-18
1.866626804890e-17
-3.331083347306e-18
-3.080879950372e-17
SCALARS C double 1
LOOKUP_TABLE default
 3.190559220786e-06
 1.100588641589e-05
 2.611425559239e-05
 5.366694919264e-05
 1.020910759669e-04
 1.850777580103e-04
 3.247390950672e-04
 5.565892929054e-04
 9.374880559059e-04
 1.558956628049e-03
 2.570479929183e-03
 4.215479274472e-03
 6.863355204555e-03
 1.100369467863e-02
 1.730480437299e-02
 2.732852148422e-02
 7.601963610924e-02
 1.154073740697e-01
 1.211667134245e-01
 1.217076976867e-01
 1.213712970314e-01
 1.208739443428e-01
 1.202190859302e-01
 1.194864636931e-01
 1.185859685952e-01
 1.175732488086e-01
 1.164489165397e-01
 1.151618512621e-01
 1.138054315815e-01
 1.123722417559e-01
 1.108015731930e-01
 1.092135376328e-01
 1.076713462179e-01
 1.061075407167e-01
 1.046333845746e-01
 1.031986000784e-01
 1.017809053676e-01
 1.001654568344e-01
 1.006289869881e-01
 1.011664577631e-01
 1.016090357517e-01
 1.021225932945e-01
 1.025808047081e-01
 1.031273258267e-01
 1.035688600699e-01
 1.040433294118e-01
 1.045933488712e-01
 1.050535440226e-01
 1.054493304238e-01
 1.059207567978e-01
 1.062751989521e-01
 1.066804786069e-01
 1.070062984220e-01
 1.072376917586e-01
 1.075046643674e-01
 1.077622094859e-01
 1.079417911852e-01
 1.080563545750e-01
 1.081909416237e-01
 1.083184714167e-01
 1.083518983773e-01
 1.084441069419e-01
 1.085032123085e-01
 1.084974309214e-01
 1.085339659117e-01
 1.086459076534e-01
 1.085625607355e-01
 1.085911513539e-01
 1.086058868286e-01
 1.086813974707e-01
 1.085662731791e-01
 1.086255810523e-01
 1.086566226544e-01
 1.086304056836e-01
 1.086867803247e-01
 1.085891458971e-01
 1.086792597123e-01
 1.086095922782e-01
 1.086566106238e-01
 1.085813062789e-01
 1.086419082220e-01
 1.086605637960e-01
 1.086520191073e-01
 1.086198861317e-01
 1.086703655242e-01
 1.086327934437e-01
 1.086151540412e-01
 1.086620190017e-01
 1.086467341614e-01
 1.086203488084e-01
 1.086374731158e-01
 1.086485134526e-01
 1.086311968475e-01
 1.086669283645e-01
 1.086355744154e-01
 1.086353405730e-01
 1.085974711662e-01
 1.086800884654e-01
 1.086234197246e-01
 1.086849289187e-01
 1.085342447154e-01
SCALARS Ca double 1
LOOKUP_TABLE default
 3.190559220786e-06
 7.776143361369e-06
 1.660819258041e-05
 3.262296119584e-05
 6.056539365485e-05
 1.080480570227e-04
 1.872133875742e-04
 3.173305250573e-04
 5.288994703126e-04
 8.704713492738e-04
 1.420494776329e-03
 2.305533254619e-03
 3.716555231785e-03
 5.906344708942e-03
 9.219112767108e-03
 1.444828380853e-02
 3.908161713224e-02
 5.915239682156e-02
 6.252055705451e-02
 6.341780595531e-02
 6.404606017899e-02
 6.480021235389e-02
 6.572441275357e-02
 6.690722346170e-02
 6.835907031243e-02
 7.017059259674e-02
 7.241282703881e-02
 7.513950188425e-02
 7.848587482419e-02
 8.254673636008e-02
 8.740090678361e-02
 9.323238460863e-02
 1.002158304348e-01
 1.084305502424e-01
 1.179602962318e-01
 1.297626294161e-01
 1.471815820195e-01
 1.740614910747e-01
 1.715375921906e-01
 1.660460682821e-01
 1.606782397563e-01
 1.555730537768e-01
 1.506319148304e-01
 1.460398728936e-01
 1.416381234378e-01
 1.375897202982e-01
 1.339540722226e-01
 1.305750858518e-01
 1.274805490810e-01
 1.248066169388e-01
 1.223512620102e-01
 1.202682440266e-01
 1.184094541499e-01
 1.167392837154e-01
 1.153651583716e-01
 1.142183855247e-01
 1.132063839681e-01
 1.123183376653e-01
 1.116163428744e-01
 1.110516045287e-01
 1.105168986113e-01
 1.101466671140e-01
 1.098324268989e-01
 1.095276692492e-01
 1.093267102950e-01
 1.092515069592e-01
 1.090218634871e-01
 1.089369949690e-01
 1.088644304638e-01
 1.088732945408e-01
 1.087076867027e-01
 1.087290499748e-01
 1.087317908556e-01
 1.086846273687e-01
 1.087256164895e-01
 1.086167665818e-01
 1.086987661526e-01
 1.086232720291e-01
 1.086661374089e-01
 1.085878948971e-01
 1.086464333844e-01
 1.086636503808e-01
 1.086541100353e-01
 1.086212929227e-01
 1.086713055998e-01
 1.086334173969e-01
 1.086155653904e-01
 1.086622883735e-01
 1.086469093842e-01
 1.086204620328e-01
 1.086375457956e-01
 1.086485598001e-01
 1.086312262100e-01
 1.086669468455e-01
 1.086355859724e-01
 1.086353477537e-01
 1.085974755998e-01
 1.086800911882e-01
 1.086234213973e-01
 1.086849299850e-01
 1.085342455711e-01
SCALARS Cl double 1
LOOKUP_TABLE default
 1.276223688314e+00
 1.276203709689e+00
 1.276186635073e+00
 1.276156845997e+00
 1.276107467019e+00
 1.276028708321e+00
 1.275906918620e+00
 1.275723433228e+00
 1.275453208252e+00
 1.275063244622e+00
 1.274510823414e+00
 1.273741595768e+00
 1.272687594095e+00
 1.271265262502e+00
 1.269373652196e+00
 1.266892961912e+00
 1.263679687285e+00
 1.259575426503e+00
 1.254406254310e+00
 1.247970227588e+00
 1.240052886317e+00
 1.230428656031e+00
 1.218865811092e+00
 1.205132995126e+00
 1.189007010108e+00
 1.170281445859e+00
 1.148775948930e+00
 1.124345626959e+00
 1.096890110575e+00
 1.066361841879e+00
 1.032772969882e+00
 9.962004024022e-01
 9.567886599384e-01
 9.147501601916e-01
 8.703627397704e-01
 8.239644823604e-01
 7.759459940522e-01
 7.267397432317e-01
 6.768103570082e-01
 6.266381430860e-01
 5.767072007502e-01
 5.274912080009e-01
 4.794401688426e-01
 4.329684254306e-01
 3.884444988835e-01
 3.461830264465e-01
 3.064391639038e-01
 2.694054834015e-01
 2.352113345345e-01
 2.039245356023e-01
 1.755551054645e-01
 1.500606436779e-01
 1.273530098845e-01
 1.073058166696e-01
 8.976234705620e-02
 7.454349785168e-02
 6.145540024511e-02
 5.029644874507e-02
 4.086353381108e-02
 3.295734165180e-02
 2.638665438622e-02
 2.097164579202e-02
 1.654622011048e-02
 1.295947071432e-02
 1.007637234989e-02
 7.777830132291e-03
 5.960214399329e-03
 4.534507683639e-03
 3.425183514595e-03
 2.568917855152e-03
 1.913223074064e-03
 1.415073832757e-03
 1.039579979826e-03
 7.587439171897e-04
 5.503281666901e-04
 3.968464855190e-04
 2.846829562806e-04
 2.033369313636e-04
 1.447863671061e-04
 1.029594210764e-04
 7.330210580498e-05
 5.242942921678e-05
 3.784749573346e-05
 2.773490064501e-05
 2.077279763155e-05
 1.601431796360e-05
 1.278533649336e-05
 1.060987253464e-05
 9.154592548006e-06
 8.187943457079e-06
 7.550358700667e-06
 7.132746869776e-06
 6.861107715012e-06
 6.685632678457e-06
 6.573053373397e-06
 6.501318522998e-06
 6.455926745293e-06
 6.427432600099e-06
 6.409810930894e-06
 6.399570652365e-06
 6.396002301338e-06
SCALARS H double 1
LOOKUP_TABLE default
 3.542055048139e+04
 3.542024803891e+04
 3.542024805175e+04
 3.542024808188e+04
 3.542024814568e+04
 3.542024826535e+04
 3.542024847197e+04
 3.542024881250e+04
 3.542024936337e+04
 3.542025025117e+04
 3.542025168702e+04
 3.542025403729e+04
 3.542025791249e+04
 3.542026423082e+04
 3.542027435546e+04
 3.542029129177e+04
 3.542021627310e+04
 3.542007740977e+04
 3.542005875617e+04
 3.542005912871e+04
 3.542006313622e+04
 3.542006830422e+04
 3.542007468413e+04
 3.542008210722e+04
 3.542009099602e+04
 3.542010124460e+04
 3.542011296183e+04
 3.542012646882e+04
 3.542014152007e+04
 3.542015825990e+04
 3.542017696786e+04
 3.542019727518e+04
 3.542021896156e+04
 3.542024227368e+04
 3.542026683655e+04
 3.542029206965e+04
 3.542031614578e+04
 3.542032448043e+04
 3.542035672091e+04
 3.542039205493e+04
 3.542042760091e+04
 3.542046252477e+04
 3.542049693671e+04
 3.542053000672e+04
 3.542056219697e+04
 3.542059269841e+04
 3.542062111786e+04
 3.542064793975e+04
 3.542067295562e+04
 3.542069549991e+04
 3.542071630454e+04
 3.542073469518e+04
 3.542075124608e+04