# vtk DataFile Version 3.0
Unstructured Grid from OpenGeoSys
ASCII
DATASET UNSTRUCTURED_GRID
FIELD TimesAndCycles 2
TIME 1 1 double
4.000000000000e+03
CYLCE 1 1 long
40
POINTS 101 double
0.000000000000e+00 0.000000000000e+00 0.000000000000e+00
5.000000000000e-03 0.000000000000e+00 0.000000000000e+00
1.000000000000e-02 0.000000000000e+00 0.000000000000e+00
1.500000000000e-02 0.000000000000e+00 0.000000000000e+00
2.000000000000e-02 0.000000000000e+00 0.000000000000e+00
2.500000000000e-02 0.000000000000e+00 0.000000000000e+00
3.000000000000e-02 0.000000000000e+00 0.000000000000e+00
3.500000000000e-02 0.000000000000e+00 0.000000000000e+00
4.000000000000e-02 0.000000000000e+00 0.000000000000e+00
4.500000000000e-02 0.000000000000e+00 0.000000000000e+00
5.000000000000e-02 0.000000000000e+00 0.000000000000e+00
5.500000000000e-02 0.000000000000e+00 0.000000000000e+00
6.000000000000e-02 0.000000000000e+00 0.000000000000e+00
6.500000000000e-02 0.000000000000e+00 0.000000000000e+00
7.000000000000e-02 0.000000000000e+00 0.000000000000e+00
7.500000000000e-02 0.000000000000e+00 0.000000000000e+00
8.000000000000e-02 0.000000000000e+00 0.000000000000e+00
8.500000000000e-02 0.000000000000e+00 0.000000000000e+00
9.000000000000e-02 0.000000000000e+00 0.000000000000e+00
9.500000000000e-02 0.000000000000e+00 0.000000000000e+00
1.000000000000e-01 0.000000000000e+00 0.000000000000e+00
1.050000000000e-01 0.000000000000e+00 0.000000000000e+00
1.100000000000e-01 0.000000000000e+00 0.000000000000e+00
1.150000000000e-01 0.000000000000e+00 0.000000000000e+00
1.200000000000e-01 0.000000000000e+00 0.000000000000e+00
1.250000000000e-01 0.000000000000e+00 0.000000000000e+00
1.300000000000e-01 0.000000000000e+00 0.000000000000e+00
1.350000000000e-01 0.000000000000e+00 0.000000000000e+00
1.400000000000e-01 0.000000000000e+00 0.000000000000e+00
1.450000000000e-01 0.000000000000e+00 0.000000000000e+00
1.500000000000e-01 0.000000000000e+00 0.000000000000e+00
1.550000000000e-01 0.000000000000e+00 0.000000000000e+00
1.600000000000e-01 0.000000000000e+00 0.000000000000e+00
1.650000000000e-01 0.000000000000e+00 0.000000000000e+00
1.700000000000e-01 0.000000000000e+00 0.000000000000e+00
1.750000000000e-01 0.000000000000e+00 0.000000000000e+00
1.800000000000e-01 0.000000000000e+00 0.000000000000e+00
1.850000000000e-01 0.000000000000e+00 0.000000000000e+00
1.900000000000e-01 0.000000000000e+00 0.000000000000e+00
1.950000000000e-01 0.000000000000e+00 0.000000000000e+00
2.000000000000e-01 0.000000000000e+00 0.000000000000e+00
2.050000000000e-01 0.000000000000e+00 0.000000000000e+00
2.100000000000e-01 0.000000000000e+00 0.000000000000e+00
2.150000000000e-01 0.000000000000e+00 0.000000000000e+00
2.200000000000e-01 0.000000000000e+00 0.000000000000e+00
2.250000000000e-01 0.000000000000e+00 0.000000000000e+00
2.300000000000e-01 0.000000000000e+00 0.000000000000e+00
2.350000000000e-01 0.000000000000e+00 0.000000000000e+00
2.400000000000e-01 0.000000000000e+00 0.000000000000e+00
2.450000000000e-01 0.000000000000e+00 0.000000000000e+00
2.500000000000e-01 0.000000000000e+00 0.000000000000e+00
2.550000000000e-01 0.000000000000e+00 0.000000000000e+00
2.600000000000e-01 0.000000000000e+00 0.000000000000e+00
2.650000000000e-01 0.000000000000e+00 0.000000000000e+00
2.700000000000e-01 0.000000000000e+00 0.000000000000e+00
2.750000000000e-01 0.000000000000e+00 0.000000000000e+00
2.800000000000e-01 0.000000000000e+00 0.000000000000e+00
2.850000000000e-01 0.000000000000e+00 0.000000000000e+00
2.900000000000e-01 0.000000000000e+00 0.000000000000e+00
2.950000000000e-01 0.000000000000e+00 0.000000000000e+00
3.000000000000e-01 0.000000000000e+00 0.000000000000e+00
3.050000000000e-01 0.000000000000e+00 0.000000000000e+00
3.100000000000e-01 0.000000000000e+00 0.000000000000e+00
3.150000000000e-01 0.000000000000e+00 0.000000000000e+00
3.200000000000e-01 0.000000000000e+00 0.000000000000e+00
3.250000000000e-01 0.000000000000e+00 0.000000000000e+00
3.300000000000e-01 0.000000000000e+00 0.000000000000e+00
3.350000000000e-01 0.000000000000e+00 0.000000000000e+00
3.400000000000e-01 0.000000000000e+00 0.000000000000e+00
3.450000000000e-01 0.000000000000e+00 0.000000000000e+00
3.500000000000e-01 0.000000000000e+00 0.000000000000e+00
3.550000000000e-01 0.000000000000e+00 0.000000000000e+00
3.600000000000e-01 0.000000000000e+00 0.000000000000e+00
3.650000000000e-01 0.000000000000e+00 0.000000000000e+00
3.700000000000e-01 0.000000000000e+00 0.000000000000e+00
3.750000000000e-01 0.000000000000e+00 0.000000000000e+00
3.800000000000e-01 0.000000000000e+00 0.000000000000e+00
3.850000000000e-01 0.000000000000e+00 0.000000000000e+00
3.900000000000e-01 0.000000000000e+00 0.000000000000e+00
3.950000000000e-01 0.000000000000e+00 0.000000000000e+00
4.000000000000e-01 0.000000000000e+00 0.000000000000e+00
4.050000000000e-01 0.000000000000e+00 0.000000000000e+00
4.100000000000e-01 0.000000000000e+00 0.000000000000e+00
4.150000000000e-01 0.000000000000e+00 0.000000000000e+00
4.200000000000e-01 0.000000000000e+00 0.000000000000e+00
4.250000000000e-01 0.000000000000e+00 0.000000000000e+00
4.300000000000e-01 0.000000000000e+00 0.000000000000e+00
4.350000000000e-01 0.000000000000e+00 0.000000000000e+00
4.400000000000e-01 0.000000000000e+00 0.000000000000e+00
4.450000000000e-01 0.000000000000e+00 0.000000000000e+00
4.500000000000e-01 0.000000000000e+00 0.000000000000e+00
4.550000000000e-01 0.000000000000e+00 0.000000000000e+00
4.600000000000e-01 0.000000000000e+00 0.000000000000e+00
4.650000000000e-01 0.000000000000e+00 0.000000000000e+00
4.700000000000e-01 0.000000000000e+00 0.000000000000e+00
4.750000000000e-01 0.000000000000e+00 0.000000000000e+00
4.800000000000e-01 0.000000000000e+00 0.000000000000e+00
4.850000000000e-01 0.000000000000e+00 0.000000000000e+00
4.900000000000e-01 0.000000000000e+00 0.000000000000e+00
4.950000000000e-01 0.000000000000e+00 0.000000000000e+00
5.000000000000e-01 0.000000000000e+00 0.000000000000e+00
CELLS 100 300
2 0 1
2 2 3
2 4 5
2 6 7
2 8 9
2 10 11
2 12 13
2 14 15
2 16 17
2 18 19
2 20 21
2 22 23
2 24 25
2 26 27
2 28 29
2 30 31
2 32 33
2 34 35
2 36 37
2 38 39
2 40 41
2 42 43
2 44 45
2 46 47
2 48 49
2 50 51
2 52 53
2 54 55
2 56 57
2 58 59
2 60 61
2 62 63
2 64 65
2 66 67
2 68 69
2 70 71
2 72 73
2 74 75
2 76 77
2 78 79
2 80 81
2 82 83
2 84 85
2 86 87
2 88 89
2 90 91
2 92 93
2 94 95
2 96 97
2 98 99
2 1 2
2 3 4
2 5 6
2 7 8
2 9 10
2 11 12
2 13 14
2 15 16
2 17 18
2 19 20
2 21 22
2 23 24
2 25 26
2 27 28
2 29 30
2 31 32
2 33 34
2 35 36
2 37 38
2 39 40
2 41 42
2 43 44
2 45 46
2 47 48
2 49 50
2 51 52
2 53 54
2 55 56
2 57 58
2 59 60
2 61 62
2 63 64
2 65 66
2 67 68
2 69 70
2 71 72
2 73 74
2 75 76
2 77 78
2 79 80
2 81 82
2 83 84
2 85 86
2 87 88
2 89 90
2 91 92
2 93 94
2 95 96
2 97 98
2 99 100

CELL_TYPES 100
3
3
3
3
3
3
3
3
3
3
3
3
3
3
3
3
3
3
3
3
3
3
3
3
3
3
3
3
3
3
3
3
3
3
3
3
3
3
3
3
3
3
3
3
3
3
3
3
3
3
3
3
3
3
3
3
3
3
3
3
3
3
3
3
3
3
3
3
3
3
3
3
3
3
3
3
3
3
3
3
3
3
3
3
3
3
3
3
3
3
3
3
3
3
3
3
3
3
3
3

POINT_DATA 101
SCALARS 1-C double 1
LOOKUP_TABLE default
9.970358361137e-06
8.817587645628e-03
2.602036101092e-02
5.902805043511e-02
1.046058572364e-01
1.256789754248e-01
1.195881198043e-01
1.138006153312e-01
1.088353015681e-01
1.064402484131e-01
1.072980167795e-01
1.132957502609e-01
1.161314988796e-01
1.184236375449e-01
1.201107223176e-01
1.212286846588e-01
1.218973907840e-01
1.222566475051e-01
1.224110758236e-01
1.224544366567e-01
1.224577905270e-01
1.224479452712e-01
1.224334522082e-01
1.224165985636e-01
1.224147848662e-01
1.224122240913e-01
1.224036372351e-01
1.223983188044e-01
1.223891679338e-01
1.223911441180e-01
1.223984169263e-01
1.223961807065e-01
1.223861553921e-01
1.223979250348e-01
1.223949788190e-01
1.224010004277e-01
1.223933999724e-01
1.223935515804e-01
1.223936673680e-01
1.223873513083e-01
1.223848448383e-01
1.223866538666e-01
1.223940294860e-01
1.223941844601e-01
1.223844907449e-01
1.224014348999e-01
1.223996686080e-01
1.223888077399e-01
1.223962906572e-01
1.223948490682e-01
1.223971913397e-01
1.223982110741e-01
1.223940312053e-01
1.223856661430e-01
1.223940172321e-01
1.224634846236e-01
1.223958605664e-01
1.223933591022e-01
1.223917143342e-01
1.223941187866e-01
1.223998831911e-01
1.223879125701e-01
1.223941426938e-01
1.223916125815e-01
1.223966489933e-01
1.223947481128e-01
1.223953354416e-01
1.224006503136e-01
1.224045494250e-01
1.223322698642e-01
1.223966910997e-01
1.223900209229e-01
1.223950877286e-01
1.223956465897e-01
1.223896874693e-01
1.224013482092e-01
1.223932650830e-01
1.223932846083e-01
1.223938669944e-01
1.223860201419e-01
1.223940169899e-01
1.223897619585e-01
1.223842283682e-01
1.223926528853e-01
1.223942197398e-01
1.223899626528e-01
1.223935656103e-01
1.223926822050e-01
1.223901745357e-01
1.223886125779e-01
1.224023889874e-01
1.223940296244e-01
1.223977584702e-01
1.223958725105e-01
1.223920041561e-01
1.223919117624e-01
1.223843444632e-01
1.224034048104e-01
1.223921897316e-01
1.223903834877e-01
1.223997273214e-01
SCALARS 2-Ca double 1
LOOKUP_TABLE default
9.970358361137e-06
7.497518347459e-03
2.153444916975e-02
4.659739246885e-02
8.180516239890e-02
1.092105364193e-01
1.278052378166e-01
1.519480222151e-01
1.829190457652e-01
2.129042754465e-01
2.357367582219e-01
2.016537722460e-01
1.805424135834e-01
1.638434132709e-01
1.511182191905e-01
1.417404019636e-01
1.350511913291e-01
1.304376370419e-01
1.273482919385e-01
1.253472325843e-01
1.241043104403e-01
1.233589014480e-01
1.229236688816e-01
1.226733576724e-01
1.225457644346e-01
1.224773444939e-01
1.224352136908e-01
1.224132618330e-01
1.223960740944e-01
1.223942633509e-01
1.223997946359e-01
1.223967761584e-01
1.223864073855e-01
1.223980295196e-01
1.223950212907e-01
1.224010173627e-01
1.223934065999e-01
1.223935541275e-01
1.223936683298e-01
1.223873516654e-01
1.223848449687e-01
1.223866539134e-01
1.223940295025e-01
1.223941844659e-01
1.223844907469e-01
1.224014349006e-01
1.223996686082e-01
1.223888077400e-01
1.223962906573e-01
1.223948490682e-01
1.223971913397e-01
1.223982110741e-01
1.223940312053e-01
1.223856661430e-01
1.223940172321e-01
1.224634846236e-01
1.223958605664e-01
1.223933591022e-01
1.223917143342e-01
1.223941187866e-01
1.223998831911e-01
1.223879125701e-01
1.223941426938e-01
1.223916125815e-01
1.223966489933e-01
1.223947481128e-01
1.223953354416e-01
1.224006503136e-01
1.224045494250e-01
1.223322698642e-01
1.223966910997e-01
1.223900209229e-01
1.223950877286e-01
1.223956465897e-01
1.223896874693e-01
1.224013482092e-01
1.223932650830e-01
1.223932846083e-01
1.223938669944e-01
1.223860201419e-01
1.223940169899e-01
1.223897619585e-01
1.223842283682e-01
1.223926528853e-01
1.223942197398e-01
1.223899626528e-01
1.223935656103e-01
1.223926822050e-01
1.223901745357e-01
1.223886125779e-01
1.224023889874e-01
1.223940296244e-01
1.223977584702e-01
1.223958725105e-01
1.223920041561e-01
1.223919117624e-01
1.223843444632e-01
1.224034048104e-01
1.223921897316e-01
1.223903834877e-01
1.223997273214e-01
SCALARS 3-Cl double 1
LOOKUP_TABLE default
3.988143344455e+00
3.935087671101e+00
3.843089808618e+00
3.702203071527e+00
3.505786636080e+00
3.252533905542e+00
2.947662277845e+00
2.602833171465e+00
2.234710482125e+00
1.862489469925e+00
1.505004932441e+00
1.178119675665e+00
8.929402203178e-01
6.551294859542e-01
4.652535175273e-01
3.198702621864e-01
2.129642571986e-01
1.373618554381e-01
8.587599511028e-02
5.206895864740e-02
3.063913617830e-02
1.751024816035e-02
9.727689750372e-03
5.259084696683e-03
2.771197785369e-03
1.426771545697e-03
7.209175010375e-04
3.605263193325e-04
1.814200633536e-04
9.470242424141e-05
5.376372473167e-05
3.490345994843e-05
2.641764270297e-05
2.268595933629e-05
2.108085747032e-05
2.040508998400e-05
2.012642136469e-05
2.001378893632e-05
1.996914097802e-05
1.995177214735e-05
1.994513732895e-05
1.994264718100e-05
1.994172842855e-05
1.994139501525e-05
1.994127594522e-05
1.994123408365e-05
1.994121958463e-05
1.994121463070e-05
1.994121296901e-05
1.994121241836e-05
1.994121223383e-05
1.994121217877e-05
1.994121215517e-05
1.994121214541e-05
1.994121214699e-05
1.994121217685e-05
1.994121214885e-05
1.994121214947e-05
1.994121214875e-05
1.994121214769e-05
1.994121215200e-05
1.994121214514e-05
1.994121214954e-05
1.994121214519e-05
1.994121214973e-05
1.994121214666e-05
1.994121214969e-05
1.994121215081e-05
1.994121215195e-05
1.994121211996e-05
1.994121214716e-05
1.994121214889e-05
1.994121215001e-05
1.994121214949e-05
1.994121214507e-05
1.994121215084e-05
1.994121214697e-05
1.994121214963e-05
1.994121214528e-05
1.994121214249e-05
1.994121214647e-05
1.994121214704e-05
1.994121214235e-05
1.994121214588e-05
1.994121214812e-05
1.994121214994e-05
1.994121214487e-05
1.994121215086e-05
1.994121214612e-05
1.994121214505e-05
1.994121215221e-05
1.994121214673e-05
1.994121215146e-05
1.994121214941e-05
1.994121214595e-05
1.994121214609e-05
1.994121214524e-05
1.994121215179e-05
1.994121214160e-05
1.994121216701e-05
1.994121212971e-05
SCALARS 4-H double 1
LOOKUP_TABLE default
2.701109245634e-04
1.665179564874e-02
4.485213220999e-02
8.934704455512e-02
1.391004419407e-01
1.592165509949e-01
1.536119550011e-01
1.481915703534e-01
1.433968232378e-01
1.411421670810e-01
1.422544110460e-01
1.495589554085e-01
1.536575792731e-01
1.572060567753e-01
1.600454469244e-01
1.621873930944e-01
1.636868502971e-01
1.646751667482e-01
1.653031171573e-01
1.656603858025e-01
1.658649992459e-01
1.659830274798e-01
1.660583032762e-01
1.660625656294e-01
1.661016654579e-01
1.661057752741e-01
1.661110874796e-01
1.660935551447e-01
1.660970016208e-01
1.661075148377e-01
1.661062004768e-01
1.661046503785e-01
1.660956526915e-01
1.661052010280e-01
1.660983086153e-01
1.661035669188e-01
1.660997336013e-01
1.660921844504e-01
1.661116578341e-01
1.660973424241e-01
1.661063180703e-01
1.660944127619e-01
1.661002532034e-01
1.661139367017e-01
1.660941017020e-01
1.661084347772e-01
1.661136733988e-01
1.661115384387e-01
1.660953049997e-01
1.660918823452e-01
1.661087308105e-01
1.660991103855e-01
1.661006316103e-01
1.660990196817e-01
1.660930708262e-01
1.661362532973e-01
1.660971455296e-01
1.660957751716e-01
1.661030638728e-01
1.661010565171e-01
1.660994766192e-01
1.661045642068e-01
1.660963859551e-01
1.660923129502e-01
1.661114098262e-01
1.661145115382e-01
1.660946809564e-01
1.661044761956e-01
1.661081433105e-01
1.660727507216e-01
1.661162561146e-01
1.660905668314e-01
1.661088276639e-01
1.661145983013e-01
1.661060079972e-01
1.661085942803e-01
1.660940284689e-01
1.660955026665e-01
1.661141870732e-01
1.661027458418e-01
1.661138849522e-01
1.661013359833e-01
1.661047146258e-01
1.661074108411e-01
1.660996617807e-01
1.660899738220e-01
1.661103091861e-01
1.661002195897e-01
1.661011729956e-01
1.660963967349e-01
1.661075017979e-01
1.661102320822e-01
1.660926174312e-01
1.661072489026e-01
1.661097614207e-01
1.661106111053e-01
1.661047061020e-01
1.661065754354e-01
1.660990404074e-01
1.661134427867e-01
1.661158517712e-01
SCALARS 5-Mg double 1
LOOKUP_TABLE default
1.994071672227e+00
1.968863904849e+00
1.926030816150e+00
1.863532193730e+00
1.775694012878e+00
1.642735391777e+00
1.465614020910e+00
1.263269178849e+00
1.043271496866e+00
8.247807079291e-01
6.240637247781e-01
5.007018158472e-01
3.820591954551e-01
2.821449672511e-01
2.016192618908e-01
1.394234137884e-01
9.332832805423e-02
6.049993818226e-02
3.800078144024e-02
2.314168339603e-02
1.367304817583e-02
7.844167903339e-03
4.373628201802e-03
2.372783239500e-03
1.254619324343e-03
6.482653702469e-04
3.288822948779e-04
1.653201309988e-04
8.380387107003e-05
4.423197930239e-05
2.550415276646e-05
1.685627806928e-05
1.295682794966e-05
1.123849487990e-05
1.049795704175e-05
1.018561008035e-05
1.005658317402e-05
1.000434739392e-05
9.983608678054e-06
9.975529030841e-06
9.972438302173e-06
9.971276752701e-06
9.970847646718e-06
9.970691735494e-06
9.970635990990e-06
9.970616371175e-06
9.970609568470e-06
9.970607241641e-06
9.970606460547e-06
9.970606201494e-06
9.970606114477e-06
9.970606088621e-06
9.970606077350e-06
9.970606072631e-06
9.970606073473e-06
9.970606088419e-06
9.970606074424e-06
9.970606074733e-06
9.970606074374e-06
9.970606073846e-06
9.970606076002e-06
9.970606072568e-06
9.970606074772e-06
9.970606072595e-06
9.970606074864e-06
9.970606073332e-06
9.970606074845e-06
9.970606075407e-06
9.970606075973e-06
9.970606059979e-06
9.970606073579e-06
9.970606074444e-06
9.970606075003e-06
9.970606074743e-06
9.970606072537e-06
9.970606075420e-06
9.970606073483e-06
9.970606074816e-06
9.970606072640e-06
9.970606071246e-06
9.970606073237e-06
9.970606073520e-06
9.970606071176e-06
9.970606072942e-06
9.970606074058e-06
9.970606074969e-06
9.970606072436e-06
9.970606075428e-06
9.970606073059e-06
9.970606072527e-06
9.970606076105e-06
9.970606073367e-06
9.970606075729e-06
9.970606074704e-06
9.970606072976e-06
9.970606073046e-06
9.970606072619e-06
9.970606075894e-06
9.970606070800e-06
9.970606083503e-06
9.970606064854e-06
SCALARS 6-O double 1
LOOKUP_TABLE default
2.010568337471e-02
5.710682973099e-02
1.269551370306e-01
2.545654600209e-01
4.250141750186e-01
5.096878364989e-01
5.023320645159e-01
4.977766476808e-01
4.970489852381e-01
5.054867533209e-01
5.247034346409e-01
5.610593860545e-01
5.844497523648e-01
6.038026556400e-01
6.188287616364e-01
6.297965325291e-01
6.373637122949e-01
6.423381997271e-01
6.454326669656e-01
6.472629498043e-01
6.483398334321e-01
6.489602271542e-01
6.493046748601e-01
6.494573778727e-01
6.495834686469e-01
6.496383559824e-01
6.496470235506e-01
6.496385243749e-01
6.496208572027e-01
6.496359458374e-01
6.496589500000e-01
6.496523152873e-01
6.496181224868e-01
6.496583736265e-01
6.496461609929e-01
6.496668854366e-01
6.496421799176e-01
6.496388652544e-01
6.496489512730e-01
6.496228461982e-01
6.496198148695e-01
6.496192893890e-01
6.496443365422e-01
6.496516432407e-01
6.496126445443e-01
6.496706436137e-01
6.496679640667e-01
6.496343139078e-01
6.496486459774e-01
6.496426099347e-01
6.496580609331e-01
6.496563099814e-01
6.496445309358e-01
6.496186297409e-01
6.496407086262e-01
6.498707023326e-01
6.496482759852e-01
6.496400864448e-01
6.496387964512e-01
6.496450061456e-01
6.496615094422e-01
6.496281412782e-01
6.496427425917e-01
6.496331157143e-01
6.496577734266e-01
6.496536216166e-01
6.496454683603e-01
6.496663106180e-01
6.496798414883e-01
6.494453061877e-01
6.496603228748e-01
6.496274677053e-01
6.496517985337e-01
6.496563604721e-01
6.496341878886e-01
6.496704633133e-01
6.496389309732e-01
6.496397266958e-01
6.496508160178e-01
6.496215548238e-01
6.496511149329e-01
6.496320753656e-01
6.496171638800e-01
6.496437855525e-01
6.496446116107e-01
6.496269963829e-01
6.496479729317e-01
6.496402779560e-01
6.496332316151e-01
6.496261576143e-01
6.496730394202e-01
6.496493264134e-01
6.496517056805e-01
6.496533635324e-01
6.496430147223e-01
6.496431623533e-01
6.496175079460e-01
6.496756237289e-01
6.496382108222e-01
6.496399935407e-01
6.496692291754e-01
SCALARS 7-Sn double 1
LOOKUP_TABLE default
0.000000000000e+00
0.000000000000e+00
0.000000000000e+00
0.000000000000e+00
0.000000000000e+00
0.000000000000e+00
0.000000000000e+00
0.000000000000e+00
0.000000000000e+00
0.000000000000e+00
0.000000000000e+00
0.000000000000e+00
0.000000000000e+00
0.000000000000e+00
0.000000000000e+00
0.000000000000e+00
0.000000000000e+00
0.000000000000e+00
0.000000000000e+00
0.000000000000e+00
0.000000000000e+00
0.000000000000e+00
0.000000000000e+00
0.000000000000e+00
0.000000000000e+00
0.000000000000e+00
0.000000000000e+00
0.000000000000e+00
0.000000000000e+00
0.000000000000e+00
0.000000000000e+00
0.000000000000e+00
0.000000000000e+00
0.000000000000e+00
0.000000000000e+00
0.000000000000e+00
0.000000000000e+00
0.000000000000e+00
0.000000000000e+00
0.000000000000e+00
0.000000000000e+00
0.000000000000e+00
0.000000000000e+00
0.000000000000e+00
0.000000000000e+00
0.000000000000e+00
0.000000000000e+00
0.000000000000e+00
0.000000000000e+00
0.000000000000e+00
0.000000000000e+00
0.000000000000e+00
0.000000000000e+00
0.000000000000e+00
0.000000000000e+00
0.000000000000e+00
0.000000000000e+00
0.000000000000e+00
0.000000000000e+00
0.000000000000e+00
0.000000000000e+00
0.000000000000e+00
0.000000000000e+00
0.000000000000e+00
0.000000000000e+00
0.000000000000e+00
0.000000000000e+00
0.000000000000e+00
0.000000000000e+00
0.000000000000e+00
0.000000000000e+00
0.000000000000e+00
0.000000000000e+00
0.000000000000e+00
0.000000000000e+00
0.000000000000e+00
0.000000000000e+00
0.000000000000e+00
0.000000000000e+00
0.000000000000e+00
0.000000000000e+00
0.000000000000e+00
0.000000000000e+00
0.000000000000e+00
0.000000000000e+00
0.000000000000e+00
0.000000000000e+00
0.000000000000e+00
0.000000000000e+00
0.000000000000e+00
0.000000000000e+00
0.000000000000e+00
0.000000000000e+00
0.000000000000e+00
0.000000000000e+00
0.000000000000e+00
0.000000000000e+00
0.000000000000e+00
0.000000000000e+00
0.000000000000e+00
0.000000000000e+00
SCALARS 8-Zz double 1
LOOKUP_TABLE default
1.035722930241e-15
6.348259998621e-16
3.802109608437e-16
-5.988664730732e-16
9.549625340435e-16
9.472236538285e-17
-8.476209473475e-17
-7.320905298154e-16
-1.082044564574e-16
2.282296187482e-16
3.458761375101e-17
2.725955085164e-16
-3.337680693102e-17
5.404603745869e-17
1.950301576859e-16
3.513395418385e-17
-3.544569870354e-17
1.291811812093e-17
-2.597221287972e-17
2.430721439206e-17
8.624657297334e-19
-2.045289645911e-17
3.050183430447e-17
-5.573894257432e-17
2.791785523682e-18
3.929260458425e-17
-3.570970690793e-17
2.092497903354e-17
4.049523726447e-18
-2.595091960438e-20
3.601826680560e-17
-1.019219681275e-17
6.678154135298e-18
1.706364161960e-17
-1.057888545715e-17
2.621617682659e-17
-4.761086298005e-17
2.599688926925e-17
8.992629752283e-18
-3.634344267826e-17
5.174055394015e-17
2.047870909610e-17
-1.469074961598e-17
1.643856629607e-17
5.036057205555e-18
1.893138738969e-17
3.304985265485e-17
-2.053586851216e-18
3.014506632432e-18
-2.704643767248e-18
4.043438374656e-18
-3.569163471112e-18
-8.931960086255e-18
2.274221777831e-17
-7.566202879498e-18
-4.367158092884e-18
4.240643906338e-17
-6.787154129866e-18
-4.219630243515e-17
-3.437259842621e-17
1.829063113363e-17
-3.389594757800e-17
-2.984631658567e-18
-2.127121606922e-17
-3.105960255358e-17
-2.261269318560e-17
3.146131292736e-18
1.006029626724e-17
-5.261920635176e-18
2.123337037941e-17
-3.671756209152e-18
-1.100982705914e-17
-5.436142830730e-18
-3.725025341060e-17
3.726443209094e-17
-1.808337633842e-17
-2.872990585570e-17
9.993173351814e-18
5.957782355479e-18
-1.651160596974e-17
2.004680172054e-17
3.703872200613e-17
-1.157026269378e-17
-8.785942082989e-18
-3.648081553639e-17
5.521796191773e-17
1.826031162942e-17
-9.978764684461e-18
1.900709419393e-17
1.181455080634e-17
1.708632761000e-17
5.944906540673e-18
3.838901284633e-17
-4.453415386574e-17
-4.431837644382e-17
3.672751013206e-17
2.208648579252e-18
3.400257171774e-17
-1.885473022953e-17
-1.514181747755e-18
-7.924457388523e-19
SCALARS C double 1
LOOKUP_TABLE default
 3.190559220786e-06
 2.821643347828e-03
 8.326560676827e-03
 1.888907857106e-02
 3.347405583899e-02
 1.035607871274e-01
 1.124437015767e-01
 1.113426423689e-01
 1.089371630009e-01
 1.069429265144e-01
 1.038666574782e-01
 1.055313503816e-01
 1.066427282692e-01
 1.073508414390e-01
 1.078630195069e-01
 1.082314190822e-01
 1.084505536186e-01
 1.085625483507e-01
 1.086399456687e-01
 1.086602514446e-01
 1.086459433421e-01
 1.086619681028e-01
 1.086477680943e-01
 1.086433118062e-01
 1.086524358734e-01
 1.086363869747e-01
 1.086462812838e-01
 1.086348060832e-01
 1.086297754596e-01
 1.086695112510e-01
 1.086338246846e-01
 1.086332627357e-01
 1.086319153914e-01
 1.086359087303e-01
 1.086483349096e-01
 1.086277649597e-01
 1.086494708047e-01
 1.086337357335e-01
 1.086518578419e-01
 1.086275932321e-01
 1.086292472643e-01
 1.086599030650e-01
 1.086298427842e-01
 1.086441942234e-01
 1.086324938928e-01
 1.086351656329e-01
 1.086623704356e-01
 1.086336371383e-01
 1.086249487472e-01
 1.086392623640e-01
 1.086511799306e-01
 1.086352926086e-01
 1.086481883902e-01
 1.086108984083e-01
 1.086316520742e-01
 1.086541651956e-01
 1.086582011770e-01
 1.086315161097e-01
 1.086364874123e-01
 1.086524300843e-01
 1.086323741987e-01
 1.086367112139e-01
 1.086465560666e-01
 1.086218069817e-01
 1.086486907209e-01
 1.086426052451e-01
 1.086333708733e-01
 1.086541169548e-01
 1.086162261021e-01
 1.086518339152e-01
 1.086385843375e-01
 1.086380003988e-01
 1.086453443022e-01
 1.086451149759e-01
 1.086318348242e-01
 1.086375102331e-01
 1.086402661812e-01
 1.086435039388e-01
 1.086208792991e-01
 1.086594334012e-01
 1.086216522975e-01
 1.086486889393e-01
 1.086455931264e-01
 1.086346424959e-01
 1.086429766774e-01
 1.086430082545e-01
 1.086352096132e-01
 1.086384957518e-01
 1.086449569637e-01
 1.086318606169e-01
 1.086428725503e-01
 1.086376623670e-01
 1.086370369891e-01
 1.086509602869e-01
 1.086431125995e-01
 1.086210566122e-01
 1.086433985006e-01
 1.086458675554e-01
 1.086230940297e-01
 1.086719693588e-01
 1.086144563440e-01
SCALARS Ca double 1
LOOKUP_TABLE default
 3.190559220786e-06
 2.399218881688e-03
 6.891061103213e-03
 1.491124645084e-02
 2.617779392477e-02
 6.661911505135e-02
 7.798538332498e-02
 8.608652549760e-02
 9.558894428346e-02
 1.045702940659e-01
 1.363881284929e-01
 1.338058446662e-01
 1.272541674557e-01
 1.218851319748e-01
 1.177853928030e-01
 1.147951516088e-01
 1.126597588817e-01
 1.111804582171e-01
 1.102198507254e-01
 1.095859437385e-01
 1.091728283475e-01
 1.089534733225e-01
 1.088046370227e-01
 1.087254745078e-01
 1.086943492264e-01
 1.086572254494e-01
 1.086563857233e-01
 1.086395878400e-01
 1.086319854253e-01
 1.086705094029e-01
 1.086342655505e-01
 1.086334532798e-01
 1.086319960291e-01
 1.086359421653e-01
 1.086483485005e-01
 1.086277703788e-01
 1.086494729255e-01
 1.086337365486e-01
 1.086518581496e-01
 1.086275933464e-01
 1.086292473060e-01
 1.086599030799e-01
 1.086298427895e-01
 1.086441942252e-01
 1.086324938935e-01
 1.086351656331e-01
 1.086623704356e-01
 1.086336371383e-01
 1.086249487472e-01
 1.086392623640e-01
 1.086511799306e-01
 1.086352926086e-01
 1.086481883902e-01
 1.086108984083e-01
 1.086316520742e-01
 1.086541651956e-01
 1.086582011770e-01
 1.086315161097e-01
 1.086364874123e-01
 1.086524300843e-01
 1.086323741987e-01
 1.086367112139e-01
 1.086465560666e-01
 1.086218069817e-01
 1.086486907209e-01
 1.086426052451e-01
 1.086333708733e-01
 1.086541169548e-01
 1.086162261021e-01
 1.086518339152e-01
 1.086385843375e-01
 1.086380003988e-01
 1.086453443022e-01
 1.086451149759e-01
 1.086318348242e-01
 1.086375102331e-01
 1.086402661812e-01
 1.086435039388e-01
 1.086208792991e-01
 1.086594334012e-01
 1.086216522975e-01
 1.086486889393e-01
 1.086455931264e-01
 1.086346424959e-01
 1.086429766774e-01
 1.086430082545e-01
 1.086352096132e-01
 1.086384957518e-01
 1.086449569637e-01
 1.086318606169e-01
 1.086428725503e-01
 1.086376623670e-01
 1.086370369891e-01
 1.086509602869e-01
 1.086431125995e-01
 1.086210566122e-01
 1.086433985006e-01
 1.086458675554e-01
 1.086230940297e-01
 1.086719693588e-01
 1.086144563440e-01
SCALARS Cl double 1
LOOKUP_TABLE default
 1.276223688314e+00
 1.259234883340e+00
 1.229795407701e+00
 1.184711407350e+00
 1.121857807164e+00
 1.040809860879e+00
 9.432500047493e-01
 8.329048528763e-01
 7.151059002393e-01
 5.959954921490e-01
 4.816004474393e-01
 3.769973261940e-01
 2.857401285629e-01
 2.096408917760e-01
 1.488807399440e-01
 1.023582186223e-01
 6.814838564585e-02
 4.395567981110e-02
 2.748024712026e-02
 1.666202351455e-02
 9.804498143161e-03
 5.603264863454e-03
 3.112852641599e-03
 1.682902735263e-03
 8.867809888423e-04
 4.565657099788e-04
 2.306930014198e-04
 1.153681228043e-04
 5.805426963548e-05
 3.030469698666e-05
 1.720434727059e-05
 1.116907820067e-05
 8.453623726684e-06
 7.259488148095e-06
 6.745856873530e-06
 6.529611856388e-06
 6.440438111591e-06
 6.404395839778e-06
 6.390108516859e-06
 6.384550521870e-06
 6.382427383684e-06
 6.381630516254e-06
 6.381336540112e-06
 6.381229837598e-06
 6.381191741621e-06
 6.381178347980e-06
 6.381173687850e-06
 6.381172121202e-06
 6.381171597623e-06
 6.381171410535e-06
 6.381171343258e-06
 6.381171337581e-06
 6.381171319548e-06
 6.381171341915e-06
 6.381171329105e-06
 6.381171338452e-06
 6.381171310581e-06
 6.381171329843e-06
 6.381171325564e-06
 6.381171314050e-06
 6.381171331560e-06
 6.381171323347e-06
 6.381171318975e-06
 6.381171335213e-06
 6.381171318052e-06
 6.381171321106e-06
 6.381171329014e-06
 6.381171315346e-06
 6.381171344535e-06
 6.381171291037e-06
 6.381171324683e-06
 6.381171324095e-06
 6.381171320238e-06
 6.381171320372e-06
 6.381171327337e-06
 6.381171327750e-06
 6.381171322576e-06
 6.381171321048e-06
 6.381171336457e-06
 6.381171305319e-06
 6.381171336304e-06
 6.381171315570e-06
 6.381171315046e-06
 6.381171326227e-06
 6.381171321172e-06
 6.381171320729e-06
 6.381171325701e-06
 6.381171324987e-06
 6.381171318121e-06
 6.381171327058e-06
 6.381171324484e-06
 6.381171324599e-06
 6.381171327450e-06
 6.381171316095e-06
 6.381171319858e-06
 6.381171336125e-06
 6.381171317613e-06
 6.381171322383e-06
 6.381171333252e-06
 6.381171304959e-06
 6.381171337585e-06
SCALARS H double 1
LOOKUP_TABLE default
 3.542055048139e+04
 3.542026120289e+04
 3.542028582031e+04
 3.542032843682e+04
 3.542039058700e+04
 3.542022646432e+04
 3.542024454628e+04
 3.542030635126e+04
 3.542037836809e+04
 3.542045467382e+04
 3.542051135481e+04
 3.542057959311e+04
 3.542064293738e+04
 3.542069670057e+04
 3.542073971211e+04
 3.542077249956e+04
 3.542079657774e+04
 3.542081358663e+04
 3.542082499710e+04
 3.542083250275e+04
 3.542083732385e+04
 3.542084015132e+04
 3.542084190514e+04
 3.542084288162e+04
 3.542084339047e+04
 3.542084374905e+04
 3.542084384694e+04
 3.542084396401e+04
 3.542084400491e+04
 3.542084386523e+04
 3.542084403528e+04
 3.542084403718e+04
 3.542084402431e+04
 3.542084403273e+04
 3.542084397659e+04
 3.542084407304e+04
 3.542084396878e+04
 3.542084403399e+04
 3.542084395868e+04
 3.542084404577e+04
 3.542084403320e+04
 3.542084391261e+04
 3.542084405027e+04
 3.542084399092e+04
 3.542084402001e+04
 3.542084404357e+04
 3.542084392810e+04
 3.542084402305e+04
 3.542084407540e+04
 3.542084401420e+04
 3.542084396901e+04
 3.542084403672e+04
 3.542084397530e+04