# vtk DataFile Version 3.0
Unstructured Grid from OpenGeoSys
ASCII
DATASET UNSTRUCTURED_GRID
FIELD TimesAndCycles 2
TIME 1 1 double
1.500000000000e+04
CYLCE 1 1 long
150
POINTS 101 double
0.000000000000e+00 0.000000000000e+00 0.000000000000e+00
5.000000000000e-03 0.000000000000e+00 0.000000000000e+00
1.000000000000e-02 0.000000000000e+00 0.000000000000e+00
1.500000000000e-02 0.000000000000e+00 0.000000000000e+00
2.000000000000e-02 0.000000000000e+00 0.000000000000e+00
2.500000000000e-02 0.000000000000e+00 0.000000000000e+00
3.000000000000e-02 0.000000000000e+00 0.000000000000e+00
3.500000000000e-02 0.000000000000e+00 0.000000000000e+00
4.000000000000e-02 0.000000000000e+00 0.000000000000e+00
4.500000000000e-02 0.000000000000e+00 0.000000000000e+00
5.000000000000e-02 0.000000000000e+00 0.000000000000e+00
5.500000000000e-02 0.000000000000e+00 0.000000000000e+00
6.000000000000e-02 0.000000000000e+00 0.000000000000e+00
6.500000000000e-02 0.000000000000e+00 0.000000000000e+00
7.000000000000e-02 0.000000000000e+00 0.000000000000e+00
7.500000000000e-02 0.000000000000e+00 0.000000000000e+00
8.000000000000e-02 0.000000000000e+00 0.000000000000e+00
8.500000000000e-02 0.000000000000e+00 0.000000000000e+00
9.000000000000e-02 0.000000000000e+00 0.000000000000e+00
9.500000000000e-02 0.000000000000e+00 0.000000000000e+00
1.000000000000e-01 0.000000000000e+00 0.000000000000e+00
1.050000000000e-01 0.000000000000e+00 0.000000000000e+00
1.100000000000e-01 0.000000000000e+00 0.000000000000e+00
1.150000000000e-01 0.000000000000e+00 0.000000000000e+00
1.200000000000e-01 0.000000000000e+00 0.000000000000e+00
1.250000000000e-01 0.000000000000e+00 0.000000000000e+00
1.300000000000e-01 0.000000000000e+00 0.000000000000e+00
1.350000000000e-01 0.000000000000e+00 0.000000000000e+00
1.400000000000e-01 0.000000000000e+00 0.000000000000e+00
1.450000000000e-01 0.000000000000e+00 0.000000000000e+00
1.500000000000e-01 0.000000000000e+00 0.000000000000e+00
1.550000000000e-01 0.000000000000e+00 0.000000000000e+00
1.600000000000e-01 0.000000000000e+00 0.000000000000e+00
1.650000000000e-01 0.000000000000e+00 0.000000000000e+00
1.700000000000e-01 0.000000000000e+00 0.000000000000e+00
1.750000000000e-01 0.000000000000e+00 0.000000000000e+00
1.800000000000e-01 0.000000000000e+00 0.000000000000e+00
1.850000000000e-01 0.000000000000e+00 0.000000000000e+00
1.900000000000e-01 0.000000000000e+00 0.000000000000e+00
1.950000000000e-01 0.000000000000e+00 0.000000000000e+00
2.000000000000e-01 0.000000000000e+00 0.000000000000e+00
2.050000000000e-01 0.000000000000e+00 0.000000000000e+00
2.100000000000e-01 0.000000000000e+00 0.000000000000e+00
2.150000000000e-01 0.000000000000e+00 0.000000000000e+00
2.200000000000e-01 0.000000000000e+00 0.000000000000e+00
2.250000000000e-01 0.000000000000e+00 0.000000000000e+00
2.300000000000e-01 0.000000000000e+00 0.000000000000e+00
2.350000000000e-01 0.000000000000e+00 0.000000000000e+00
2.400000000000e-01 0.000000000000e+00 0.000000000000e+00
2.450000000000e-01 0.000000000000e+00 0.000000000000e+00
2.500000000000e-01 0.000000000000e+00 0.000000000000e+00
2.550000000000e-01 0.000000000000e+00 0.000000000000e+00
2.600000000000e-01 0.000000000000e+00 0.000000000000e+00
2.650000000000e-01 0.000000000000e+00 0.000000000000e+00
2.700000000000e-01 0.000000000000e+00 0.000000000000e+00
2.750000000000e-01 0.000000000000e+00 0.000000000000e+00
2.800000000000e-01 0.000000000000e+00 0.000000000000e+00
2.850000000000e-01 0.000000000000e+00 0.000000000000e+00
2.900000000000e-01 0.000000000000e+00 0.000000000000e+00
2.950000000000e-01 0.000000000000e+00 0.000000000000e+00
3.000000000000e-01 0.000000000000e+00 0.000000000000e+00
3.050000000000e-01 0.000000000000e+00 0.000000000000e+00
3.100000000000e-01 0.000000000000e+00 0.000000000000e+00
3.150000000000e-01 0.000000000000e+00 0.000000000000e+00
3.200000000000e-01 0.000000000000e+00 0.000000000000e+00
3.250000000000e-01 0.000000000000e+00 0.000000000000e+00
3.300000000000e-01 0.000000000000e+00 0.000000000000e+00
3.350000000000e-01 0.000000000000e+00 0.000000000000e+00
3.400000000000e-01 0.000000000000e+00 0.000000000000e+00
3.450000000000e-01 0.000000000000e+00 0.000000000000e+00
3.500000000000e-01 0.000000000000e+00 0.000000000000e+00
3.550000000000e-01 0.000000000000e+00 0.000000000000e+00
3.600000000000e-01 0.000000000000e+00 0.000000000000e+00
3.650000000000e-01 0.000000000000e+00 0.000000000000e+00
3.700000000000e-01 0.000000000000e+00 0.000000000000e+00
3.750000000000e-01 0.000000000000e+00 0.000000000000e+00
3.800000000000e-01 0.000000000000e+00 0.000000000000e+00
3.850000000000e-01 0.000000000000e+00 0.000000000000e+00
3.900000000000e-01 0.000000000000e+00 0.000000000000e+00
3.950000000000e-01 0.000000000000e+00 0.000000000000e+00
4.000000000000e-01 0.000000000000e+00 0.000000000000e+00
4.050000000000e-01 0.000000000000e+00 0.000000000000e+00
4.100000000000e-01 0.000000000000e+00 0.000000000000e+00
4.150000000000e-01 0.000000000000e+00 0.000000000000e+00
4.200000000000e-01 0.000000000000e+00 0.000000000000e+00
4.250000000000e-01 0.000000000000e+00 0.000000000000e+00
4.300000000000e-01 0.000000000000e+00 0.000000000000e+00
4.350000000000e-01 0.000000000000e+00 0.000000000000e+00
4.400000000000e-01 0.000000000000e+00 0.000000000000e+00
4.450000000000e-01 0.000000000000e+00 0.000000000000e+00
4.500000000000e-01 0.000000000000e+00 0.000000000000e+00
4.550000000000e-01 0.000000000000e+00 0.000000000000e+00
4.600000000000e-01 0.000000000000e+00 0.000000000000e+00
4.650000000000e-01 0.000000000000e+00 0.000000000000e+00
4.700000000000e-01 0.000000000000e+00 0.000000000000e+00
4.750000000000e-01 0.000000000000e+00 0.000000000000e+00
4.800000000000e-01 0.000000000000e+00 0.000000000000e+00
4.850000000000e-01 0.000000000000e+00 0.000000000000e+00
4.900000000000e-01 0.000000000000e+00 0.000000000000e+00
4.950000000000e-01 0.000000000000e+00 0.000000000000e+00
5.000000000000e-01 0.000000000000e+00 0.000000000000e+00
CELLS 100 300
2 0 1
2 2 3
2 4 5
2 6 7
2 8 9
2 10 11
2 12 13
2 14 15
2 16 17
2 18 19
2 20 21
2 22 23
2 24 25
2 26 27
2 28 29
2 30 31
2 32 33
2 34 35
2 36 37
2 38 39
2 40 41
2 42 43
2 44 45
2 46 47
2 48 49
2 50 51
2 52 53
2 54 55
2 56 57
2 58 59
2 60 61
2 62 63
2 64 65
2 66 67
2 68 69
2 70 71
2 72 73
2 74 75
2 76 77
2 78 79
2 80 81
2 82 83
2 84 85
2 86 87
2 88 89
2 90 91
2 92 93
2 94 95
2 96 97
2 98 99
2 1 2
2 3 4
2 5 6
2 7 8
2 9 10
2 11 12
2 13 14
2 15 16
2 17 18
2 19 20
2 21 22
2 23 24
2 25 26
2 27 28
2 29 30
2 31 32
2 33 34
2 35 36
2 37 38
2 39 40
2 41 42
2 43 44
2 45 46
2 47 48
2 49 50
2 51 52
2 53 54
2 55 56
2 57 58
2 59 60
2 61 62
2 63 64
2 65 66
2 67 68
2 69 70
2 71 72
2 73 74
2 75 76
2 77 78
2 79 80
2 81 82
2 83 84
2 85 86
2 87 88
2 89 90
2 91 92
2 93 94
2 95 96
2 97 98
2 99 100

CELL_TYPES 100
3
3
3
3
3
3
3
3
3
3
3
3
3
3
3
3
3
3
3
3
3
3
3
3
3
3
3
3
3
3
3
3
3
3
3
3
3
3
3
3
3
3
3
3
3
3
3
3
3
3
3
3
3
3
3
3
3
3
3
3
3
3
3
3
3
3
3
3
3
3
3
3
3
3
3
3
3
3
3
3
3
3
3
3
3
3
3
3
3
3
3
3
3
3
3
3
3
3
3
3

POINT_DATA 101
SCALARS 1-C double 1
LOOKUP_TABLE default
9.970358361137e-06
1.468751627901e-04
4.107492531799e-04
8.899218949075e-04
1.728070016704e-03
3.157029723133e-03
5.545146293596e-03
9.465785997135e-03
1.581688451467e-02
2.614485951503e-02
4.367177153462e-02
7.510755767855e-02
1.179507811374e-01
1.407208304728e-01
1.393275995673e-01
1.375964819504e-01
1.354849020827e-01
1.329954785954e-01
1.301079036946e-01
1.268550865123e-01
1.232923825020e-01
1.194792933086e-01
1.155112075068e-01
1.115118808757e-01
1.075722718897e-01
1.038468657425e-01
1.005162019311e-01
9.752416905454e-02
9.397555010310e-02
9.652962950929e-02
9.896166382592e-02
1.009494412321e-01
1.029312351441e-01
1.049213883501e-01
1.069025630015e-01
1.088381280294e-01
1.106936955721e-01
1.124404613012e-01
1.140520286135e-01
1.155073432463e-01
1.167969856151e-01
1.179075622930e-01
1.188591283326e-01
1.196458319017e-01
1.202882719638e-01
1.208076575029e-01
1.212145431460e-01
1.215788742347e-01
1.217703433754e-01
1.219472216570e-01
1.220732741399e-01
1.221670167504e-01
1.222376897897e-01
1.222970919664e-01
1.223225526046e-01
1.223433511503e-01
1.223610749296e-01
1.223728164359e-01
1.223733933134e-01
1.223821328250e-01
1.223856050135e-01
1.223974269746e-01
1.223923502199e-01
1.223926287520e-01
1.223939992007e-01
1.223964192543e-01
1.223864246471e-01
1.223901849574e-01
1.223180567556e-01
1.223905338039e-01
1.223919121026e-01
1.224025778490e-01
1.223877585151e-01
1.223942521293e-01
1.223941049611e-01
1.223946601420e-01
1.223940803445e-01
1.223937781900e-01
1.223828895553e-01
1.223941494569e-01
1.223878701972e-01
1.223864588721e-01
1.223892495466e-01
1.223991885973e-01
1.223940437621e-01
1.223815437197e-01
1.224065792775e-01
1.223906303103e-01
1.223977345212e-01
1.223941585620e-01
1.223925567883e-01
1.223934622119e-01
1.223814598190e-01
1.223941474152e-01
1.223942969546e-01
1.223919456392e-01
1.223937240531e-01
1.223986810410e-01
1.223883561425e-01
1.223933368365e-01
1.223978441963e-01
SCALARS 2-Ca double 1
LOOKUP_TABLE default
9.970358361137e-06
9.534353805977e-05
2.589674352542e-04
5.534845714496e-04
1.062858245225e-03
1.919924875342e-03
3.331932204820e-03
5.616371123543e-03
9.262519756354e-03
1.509532843710e-02
2.479103621011e-02
4.178536551997e-02
6.492594100608e-02
7.859033459621e-02
8.087264157611e-02
8.384751828382e-02
8.767970559827e-02
9.258163491255e-02
9.878020451216e-02
1.065556461690e-01
1.162270971733e-01
1.281441451723e-01
1.427027892514e-01
1.603524285514e-01
1.815885319799e-01
2.068381630144e-01
2.360567344916e-01
2.715521095856e-01
3.328387700030e-01
3.095031535678e-01
2.876545119437e-01
2.689735065917e-01
2.515035592278e-01
2.351761262751e-01
2.200836288555e-01
2.063040118326e-01
1.938711119773e-01
1.827802518283e-01
1.729917802873e-01
1.644399688883e-01
1.570452112872e-01
1.507044014344e-01
1.453342152111e-01
1.408172528340e-01
1.370593324222e-01
1.339678715797e-01
1.314440405976e-01
1.294553922900e-01
1.277779992944e-01
1.264863352152e-01
1.254706118141e-01
1.246859482841e-01
1.240878698585e-01
1.236433960813e-01
1.232931002348e-01
1.230365363711e-01
1.228515940358e-01
1.227167331324e-01
1.226123167641e-01
1.225466044048e-01
1.224977987761e-01
1.224732694091e-01
1.224431593937e-01
1.224263636610e-01
1.224161988581e-01
1.224108991225e-01
1.223957864023e-01
1.223961849046e-01
1.223218688053e-01
1.223929349274e-01
1.223934115781e-01
1.224035062969e-01
1.223883285397e-01
1.223945991636e-01
1.223943144779e-01
1.223947855883e-01
1.223941548374e-01
1.223938220648e-01
1.223829151874e-01
1.223941643111e-01
1.223878787367e-01
1.223864637424e-01
1.223892523024e-01
1.223991901446e-01
1.223940446241e-01
1.223815441961e-01
1.224065795389e-01
1.223906304526e-01
1.223977345981e-01
1.223941586032e-01
1.223925568103e-01
1.223934622235e-01
1.223814598251e-01
1.223941474183e-01
1.223942969562e-01
1.223919456400e-01
1.223937240535e-01
1.223986810412e-01
1.223883561426e-01
1.223933368365e-01
1.223978441964e-01
SCALARS 3-Cl double 1
LOOKUP_TABLE default
3.988143344455e+00
3.987907552187e+00
3.987467623246e+00
3.986709504149e+00
3.985473100757e+00
3.983539934914e+00
3.980619708584e+00
3.976336510664e+00
3.970215718007e+00
3.961672951895e+00
3.950006729594e+00
3.934396469647e+00
3.913906766385e+00
3.887503120822e+00
3.854072776305e+00
3.812463460543e+00
3.761523794886e+00
3.700157526209e+00
3.627383107426e+00
3.542396486622e+00
3.444633044977e+00
3.333824141893e+00
3.210043619920e+00
3.073739930619e+00
2.925750368610e+00
2.767295065054e+00
2.599949846831e+00
2.425598749460e+00
2.246368792561e+00
2.064550975102e+00
1.882511172909e+00
1.702598827032e+00
1.527057890602e+00
1.357945733571e+00
1.197064826024e+00
1.045910671888e+00
9.056381082658e-01
7.770465988205e-01
6.605837451936e-01
5.563650303915e-01
4.642068774810e-01
3.836695361419e-01
3.141060721629e-01
2.547138388234e-01
2.045851748348e-01
1.627546360221e-01
1.282407476633e-01
1.000809763197e-01
7.735930087823e-02
5.922635920745e-02
4.491261944336e-02
3.373537559313e-02
2.510057131524e-02
1.850054827863e-02
1.350880512412e-02
9.772768541519e-03
7.005444192737e-03
4.976656174441e-03
3.504417484816e-03
2.446816844902e-03
1.694668026724e-03
1.165052369966e-03
7.957952260772e-04
5.408517815208e-04
3.665342105793e-04
2.484868973905e-04
1.693054101607e-04
1.166941719491e-04
8.206395827711e-05
5.948063829939e-05
4.488878919515e-05
3.554643183293e-05
2.961909415499e-05
2.589214814214e-05
2.356957328504e-05
2.213493563421e-05
2.125651389591e-05
2.072332083912e-05
2.040245872329e-05
2.021101698036e-05
2.009775851255e-05
2.003131513973e-05
1.999265968032e-05
1.997035589299e-05
1.995759190960e-05
1.995034648821e-05
1.994626668853e-05
1.994398766731e-05
1.994272464507e-05
1.994203015217e-05
1.994165123671e-05
1.994144609195e-05
1.994133586789e-05
1.994127710767e-05
1.994124600064e-05
1.994122966486e-05
1.994122114659e-05
1.994121674258e-05
1.994121448243e-05
1.994121337352e-05
1.994121302081e-05
SCALARS 4-H double 1
LOOKUP_TABLE default
2.701109245634e-04
4.425174088306e-04
8.942097049839e-04
1.806718298661e-03
3.434823288411e-03
6.189355323062e-03
1.069014893827e-02
1.780563278264e-02
2.869415530942e-02
4.503566292545e-02
6.983378283899e-02
1.080282718790e-01
1.518676726103e-01
1.725133199841e-01
1.712834640747e-01
1.697464575425e-01
1.678581690966e-01
1.656128852388e-01
1.629819522008e-01
1.599827427909e-01
1.566588370264e-01
1.530296818975e-01
1.491931718736e-01
1.452496829675e-01
1.412975330658e-01
1.374532694560e-01
1.339129853522e-01
1.306058552202e-01
1.263422816293e-01
1.294342186296e-01
1.324393000510e-01
1.350072049056e-01
1.375796362076e-01
1.401698910598e-01
1.428130610287e-01
1.454140610603e-01
1.479403631320e-01
1.503349492768e-01
1.526189346700e-01
1.546918620612e-01
1.566038493570e-01
1.582755116915e-01
1.597480276744e-01
1.610053628502e-01
1.620652841374e-01
1.629491534265e-01
1.636782564285e-01
1.642683497787e-01
1.646960518261e-01
1.650567519359e-01
1.653183349245e-01
1.655279041517e-01
1.656965722413e-01
1.658117928148e-01
1.658950932731e-01
1.659484938265e-01
1.659882672569e-01
1.660350221045e-01
1.660508522474e-01
1.660659811883e-01
1.660869825806e-01
1.660906308609e-01
1.660814276028e-01
1.660887332506e-01
1.660956391422e-01
1.661098876784e-01
1.660931593608e-01
1.661128989632e-01
1.660645582478e-01
1.661133500279e-01
1.660920358346e-01
1.661105922992e-01
1.661095585600e-01
1.660903999906e-01
1.661092701847e-01
1.661127872714e-01
1.660937448571e-01
1.661002270333e-01
1.661033228495e-01
1.660930049156e-01
1.660904602191e-01
1.660906423476e-01
1.660959004453e-01
1.661027320613e-01
1.661136735313e-01
1.661004431842e-01
1.661073639158e-01
1.660899514430e-01
1.661105030226e-01
1.660960087553e-01
1.661036705713e-01
1.661034113093e-01
1.660985567130e-01
1.661013904846e-01
1.661083024044e-01
1.661144154476e-01
1.661157423860e-01
1.661085009305e-01
1.660998458493e-01
1.660952848290e-01
1.661064043576e-01
SCALARS 5-Mg double 1
LOOKUP_TABLE default
1.994071672227e+00
1.994005307718e+00
1.993885593441e+00
1.993691189398e+00
1.993401762150e+00
1.993007072305e+00
1.992523068381e+00
1.992017670206e+00
1.991662223762e+00
1.991886007025e+00
1.993884100121e+00
2.000520426982e+00
2.009978223324e+00
2.005882056287e+00
1.985491346144e+00
1.959980693938e+00
1.928567093927e+00
1.890492606787e+00
1.845019252895e+00
1.791497683654e+00
1.729381807817e+00
1.658247219083e+00
1.577830228215e+00
1.488029417634e+00
1.388858924215e+00
1.280656235255e+00
1.164434390855e+00
1.038771434199e+00
8.843211763804e-01
8.193019634927e-01
7.525627383367e-01
6.832753481567e-01
6.149566212171e-01
5.487181288603e-01
4.853513471580e-01
4.254894521408e-01
3.696416377278e-01
3.181835088832e-01
2.713521209231e-01
2.292498895538e-01
1.918552130684e-01
1.590379289295e-01
1.305779492029e-01
1.061854984793e-01
8.552152695894e-02
6.821710393409e-02
5.389087637992e-02
4.216397010439e-02
3.267199451996e-02
2.507406604548e-02
1.905897204734e-02
1.434875626273e-02
1.070010558871e-02
7.903970024333e-03
5.783854931793e-03
4.193199049800e-03
3.012202990036e-03
2.144411390701e-03
1.513285291658e-03
1.058936842602e-03
7.351402506930e-04
5.066837504248e-04
3.470884391839e-04
2.366909817969e-04
1.610674478139e-04
1.097635805056e-04
7.529094988640e-05
5.234713875772e-05
3.721992938578e-05
2.733919562617e-05
2.094491910680e-05
1.684476801241e-05
1.423952247032e-05
1.259903980976e-05
1.157526989420e-05
1.094202150988e-05
1.055376403055e-05
1.031778559738e-05
1.017559724687e-05
1.009065434539e-05
1.004033979421e-05
1.001078723804e-05
9.993573979136e-06
9.983630725536e-06
9.977934030419e-06
9.974696776593e-06
9.972871965565e-06
9.971851533524e-06
9.971285433578e-06
9.970973840565e-06
9.970803667412e-06
9.970711446616e-06
9.970661849245e-06
9.970635385042e-06
9.970621361908e-06
9.970613991321e-06
9.970610144530e-06
9.970608154182e-06
9.970607131653e-06
9.970606629762e-06
9.970606469966e-06
SCALARS 6-O double 1
LOOKUP_TABLE default
2.010568337471e-02
2.061321081948e-02
2.165047461372e-02
2.357835998255e-02
2.696249151714e-02
3.271362388291e-02
4.225977289916e-02
5.777216676742e-02
8.254514367711e-02
1.220842262012e-01
1.875889789572e-01
3.016960245382e-01
4.530673823170e-01
5.328884608979e-01
5.295980629064e-01
5.255084577057e-01
5.205216660166e-01
5.146920193307e-01
5.079884392827e-01
5.005545263524e-01
4.926035509242e-01
4.843358377984e-01
4.760831860785e-01
4.682468805171e-01
4.611112872381e-01
4.551432398558e-01
4.509114996924e-01
4.481275401145e-01
4.434151973815e-01
4.608052527416e-01
4.777958224485e-01
4.931393828302e-01
5.082706244658e-01
5.231466354726e-01
5.376518274081e-01
5.515614546201e-01
5.647041085821e-01
5.769288774838e-01
5.881469730247e-01
5.982397939171e-01
6.072123893237e-01
6.150046650216e-01
6.217264792690e-01
6.273883721190e-01
6.321018646233e-01
6.359847074875e-01
6.391233733266e-01
6.417788917569e-01
6.435898723734e-01
6.451170480376e-01
6.462702887763e-01
6.471594197955e-01
6.478444547233e-01
6.483773652350e-01
6.487200990695e-01
6.489773738191e-01
6.491750057594e-01
6.493249368007e-01
6.494008586468e-01
6.494822526522e-01
6.495370306505e-01
6.495981635597e-01
6.495949556125e-01
6.496109217050e-01
6.496263339545e-01
6.496460331111e-01
6.496112500416e-01
6.496347695363e-01
6.493957733786e-01
6.496386176034e-01
6.496327523545e-01
6.496744485021e-01
6.496297404839e-01
6.496398099154e-01
6.496489080685e-01
6.496523968008e-01
6.496411757104e-01
6.496435343946e-01
6.496124307944e-01
6.496410601825e-01
6.496209551191e-01
6.496168152600e-01
6.496278180598e-01
6.496610520763e-01
6.496510888913e-01
6.496069738065e-01
6.496855411400e-01
6.496289880095e-01
6.496605765522e-01
6.496426015707e-01
6.496416271097e-01
6.496442137958e-01
6.496057792579e-01
6.496452590075e-01
6.496491635625e-01
6.496451661257e-01
6.496511648564e-01
6.496624150949e-01
6.496271128420e-01
6.496397744201e-01
6.496588562952e-01
SCALARS 7-Sn double 1
LOOKUP_TABLE default
0.000000000000e+00
0.000000000000e+00
0.000000000000e+00
0.000000000000e+00
0.000000000000e+00
0.000000000000e+00
0.000000000000e+00
0.000000000000e+00
0.000000000000e+00
0.000000000000e+00
0.000000000000e+00
0.000000000000e+00
0.000000000000e+00
0.000000000000e+00
0.000000000000e+00
0.000000000000e+00
0.000000000000e+00
0.000000000000e+00
0.000000000000e+00
0.000000000000e+00
0.000000000000e+00
0.000000000000e+00
0.000000000000e+00
0.000000000000e+00
0.000000000000e+00
0.000000000000e+00
0.000000000000e+00
0.000000000000e+00
0.000000000000e+00
0.000000000000e+00
0.000000000000e+00
0.000000000000e+00
0.000000000000e+00
0.000000000000e+00
0.000000000000e+00
0.000000000000e+00
0.000000000000e+00
0.000000000000e+00
0.000000000000e+00
0.000000000000e+00
0.000000000000e+00
0.000000000000e+00
0.000000000000e+00
0.000000000000e+00
0.000000000000e+00
0.000000000000e+00
0.000000000000e+00
0.000000000000e+00
0.000000000000e+00
0.000000000000e+00
0.000000000000e+00
0.000000000000e+00
0.000000000000e+00
0.000000000000e+00
0.000000000000e+00
0.000000000000e+00
0.000000000000e+00
0.000000000000e+00
0.000000000000e+00
0.000000000000e+00
0.000000000000e+00
0.000000000000e+00
0.000000000000e+00
0.000000000000e+00
0.000000000000e+00
0.000000000000e+00
0.000000000000e+00
0.000000000000e+00
0.000000000000e+00
0.000000000000e+00
0.000000000000e+00
0.000000000000e+00
0.000000000000e+00
0.000000000000e+00
0.000000000000e+00
0.000000000000e+00
0.000000000000e+00
0.000000000000e+00
0.000000000000e+00
0.000000000000e+00
0.000000000000e+00
0.000000000000e+00
0.000000000000e+00
0.000000000000e+00
0.000000000000e+00
0.000000000000e+00
0.000000000000e+00
0.000000000000e+00
0.000000000000e+00
0.000000000000e+00
0.000000000000e+00
0.000000000000e+00
0.000000000000e+00
0.000000000000e+00
0.000000000000e+00
0.000000000000e+00
0.000000000000e+00
0.000000000000e+00
0.000000000000e+00
0.000000000000e+00
0.000000000000e+00
SCALARS 8-Zz double 1
LOOKUP_TABLE default
1.035722930241e-15
3.738831958928e-17
-1.459726646441e-14
-1.613956619124e-15
6.692246493175e-16
-8.367049645791e-18
-1.414364020530e-16
-4.770992086347e-16
-1.091233666250e-16
4.909345952583e-16
-2.658742362004e-16
1.487398399840e-16
-7.955919143776e-17
3.386657265432e-16
1.795623684398e-16
-9.968108137202e-16
-5.094140563426e-16
3.144461092543e-16
9.937100364178e-17
-9.509964128228e-17
1.511388351281e-17
3.688490074838e-16
-8.117614754484e-16
7.777460298755e-17
-7.034215161772e-17
-6.401622123940e-16
1.350509798547e-17
2.031742064948e-16
5.202329007711e-16
-1.853585750743e-16
-1.079569587541e-16
1.698735183970e-16
8.441888765468e-17
-5.201380766499e-17
4.050356292308e-17
-1.448731113992e-16
6.447799040442e-17
5.561011806783e-17
-7.991287947940e-17
-4.621902574556e-17
1.980859527515e-16
-4.968200326383e-18
-4.384664347422e-17
1.137685367843e-16
-1.209776302491e-16
-1.430458430103e-17
-7.612892491884e-17
-1.960307822179e-17
8.172930746252e-18
2.831657818808e-17
-2.135399014564e-17
3.109741867192e-18
5.091821930207e-18
-2.514058594957e-17
-8.838763744981e-18
2.137448350974e-17
-1.305780387479e-17
-2.696869228529e-17
1.292679224868e-17
3.269668726930e-17
9.802442507482e-18
-2.655438191981e-17
-1.512541608788e-17
3.555226912510e-17
2.540107577679e-17
9.918294346678e-18
-2.985986671932e-17
2.435479238453e-17
-8.429220373121e-18
1.237362228150e-17
2.000153699824e-17
-2.262343835360e-17
6.236363127959e-17
-3.403597223729e-17
-4.828298098636e-17
1.646848722260e-18
-8.170569647746e-18
4.683438922971e-17
-2.033466836261e-17
-2.951461086715e-18
7.198322130719e-18
1.832534992318e-17
-1.342579176400e-17
2.335814211255e-17
1.409718944783e-17
2.045381578549e-17
-7.210094332925e-18
-1.109690748892e-17
-2.446252013153e-17
5.657484390093e-18
-1.130635424796e-18
2.691318820711e-17
3.882613174365e-18
1.814669790062e-17
1.839573766850e-17
-2.007397895357e-17
-3.657736875048e-17
-1.083785819418e-17
-2.346159318712e-18
1.974952360026e-18
-4.883218050379e-18
SCALARS C double 1
LOOKUP_TABLE default
 3.190559220786e-06
 4.700030696641e-05
 1.314404737939e-04
 2.847765506587e-04
 5.529854040783e-04
 1.010254989820e-03
 1.774456436485e-03
 3.029067945134e-03
 5.061430491856e-03
 8.366400414185e-03
 1.397504267504e-02
 2.403454879185e-02
 3.774445464484e-02
 1.086021095056e-01
 1.196098197283e-01
 1.207353992260e-01
 1.201666324518e-01
 1.192380009141e-01
 1.181510529144e-01
 1.168817807549e-01
 1.154413311067e-01
 1.139289900830e-01
 1.122755867709e-01
 1.106027480249e-01
 1.088761759480e-01
 1.071925190784e-01
 1.056200151283e-01
 1.040565391428e-01
 1.024038963700e-01
 1.010162049790e-01
 1.016437576777e-01
 1.022771569788e-01
 1.028582508807e-01
 1.034228282759e-01
 1.039627649894e-01
 1.045164495602e-01
 1.050848823964e-01
 1.055556902149e-01
 1.060610454093e-01
 1.064887992774e-01
 1.068508739195e-01
 1.072300580315e-01
 1.074981929570e-01
 1.077980971594e-01
 1.079465300100e-01
 1.080905019815e-01
 1.082833628283e-01
 1.083814482744e-01
 1.083974323629e-01
 1.085059477558e-01
 1.085089019932e-01
 1.085831570277e-01
 1.086066784087e-01
 1.085689568712e-01
 1.086132094141e-01
 1.086270830547e-01
 1.086676808319e-01
 1.086128187195e-01
 1.086334620995e-01
 1.086708139060e-01
 1.086097748113e-01
 1.086439772698e-01
 1.086630830101e-01
 1.086026268425e-01
 1.086297955505e-01
 1.086929825254e-01
 1.086028728097e-01
 1.086499068650e-01
 1.086118471114e-01
 1.086843886734e-01
 1.085903077643e-01
 1.086350235403e-01
 1.086632346635e-01
 1.086515545428e-01
 1.086322422876e-01
 1.086214026492e-01
 1.086911167647e-01
 1.086143778326e-01
 1.086121801125e-01
 1.086699239642e-01
 1.086030977908e-01
 1.086596713832e-01
 1.086463100502e-01
 1.086196843046e-01
 1.086662920255e-01
 1.086382111088e-01
 1.086251177056e-01
 1.086381997043e-01
 1.086543289365e-01
 1.086283201672e-01
 1.086353471084e-01
 1.086410538577e-01
 1.086314623390e-01
 1.086868430945e-01
 1.086058349400e-01
 1.086427829571e-01
 1.086044714527e-01
 1.086798766454e-01
 1.086024386922e-01
 1.087009641529e-01
 1.085491407214e-01
SCALARS Ca double 1
LOOKUP_TABLE default
 3.190559220786e-06
 3.051009762950e-05
 8.287002866952e-05
 1.771160233299e-04
 3.401164828579e-04
 6.143792917696e-04
 1.066224087470e-03
 1.797248505666e-03
 2.964022395355e-03
 4.830531294910e-03
 7.933174607311e-03
 1.337138947685e-02
 2.077641378843e-02
 5.693462638535e-02
 6.339173161431e-02
 6.518345730263e-02
 6.646322297760e-02
 6.796582792414e-02
 6.986790275235e-02
 7.224185222315e-02
 7.518651663482e-02
 7.885388656674e-02
 8.332083418517e-02
 8.877217942725e-02
 9.533477013701e-02
 1.031688731278e-01
 1.122654533187e-01
 1.233209416744e-01
 1.426740969415e-01
 1.660544328216e-01
 1.620253088393e-01
 1.560447152262e-01
 1.504012687274e-01
 1.451042344168e-01
 1.401806108788e-01
 1.357054506461e-01
 1.317015859745e-01
 1.280643644942e-01
 1.249217167899e-01
 1.221471987423e-01
 1.197302726997e-01
 1.177250192831e-01
 1.159701987771e-01
 1.145729342425e-01
 1.133132554380e-01
 1.123017595749e-01
 1.115567935079e-01
 1.109019275088e-01
 1.103198772763e-01
 1.099584603225e-01
 1.095960472306e-01
 1.093892130247e-01
 1.091987344927e-01
 1.089997730717e-01
 1.089237838497e-01
 1.088489017495e-01
 1.088246465378e-01
 1.087228717769e-01
 1.087099174052e-01
 1.087234446747e-01
 1.086456767222e-01
 1.086682467859e-01
 1.086793419035e-01
 1.086134219853e-01
 1.086368994225e-01
 1.086976160712e-01
 1.086058685636e-01
 1.086518268432e-01
 1.086130669641e-01
 1.086851570309e-01
 1.085907875952e-01
 1.086353206428e-01
 1.086634170709e-01
 1.086516655935e-01
 1.086323093328e-01
 1.086214427920e-01
 1.086911406024e-01
 1.086143918725e-01
 1.086121883147e-01
 1.086699287175e-01
 1.086031005235e-01
 1.086596729417e-01
 1.086463109321e-01
 1.086196847997e-01
 1.086662923013e-01
 1.086382112612e-01
 1.086251177892e-01
 1.086381997498e-01
 1.086543289611e-01
 1.086283201804e-01
 1.086353471154e-01
 1.086410538614e-01
 1.086314623410e-01
 1.086868430955e-01
 1.086058349405e-01
 1.086427829574e-01
 1.086044714528e-01
 1.086798766455e-01
 1.086024386923e-01
 1.087009641529e-01
 1.085491407214e-01
SCALARS Cl double 1
LOOKUP_TABLE default
 1.276223688314e+00
 1.276137336946e+00
 1.275996558922e+00
 1.275753959495e+00
 1.275358308264e+00
 1.274739691840e+00
 1.273805214347e+00
 1.272434583580e+00
 1.270475919308e+00
 1.267742219328e+00
 1.264009007947e+00
 1.259013697675e+00
 1.252456957075e+00
 1.243999788186e+00
 1.233300667166e+00
 1.219985508271e+00
 1.203684839710e+00
 1.184047694727e+00
 1.160759953116e+00
 1.133564322387e+00
 1.102280124840e+00
 1.066821386010e+00
 1.027211745483e+00
 9.835946977665e-01
 9.362381819551e-01
 8.855326334607e-01
 8.319823141286e-01
 7.761901200625e-01
 7.188366805929e-01
 6.606546082632e-01
 6.024019767213e-01
 5.448301789896e-01
 4.886572313756e-01
 4.345414880104e-01
 3.830597376108e-01
 3.346905379438e-01
 2.898034360597e-01
 2.486542632787e-01
 2.113862475435e-01
 1.780363465037e-01
 1.485458151696e-01
 1.227739325075e-01
 1.005136823048e-01
 8.150821649364e-02
 6.546708615771e-02
 5.208134858730e-02
 4.103693263115e-02
 3.202582928200e-02
 2.475491214571e-02
 1.895238573075e-02
 1.437200096262e-02
 1.079529214798e-02
 8.032161955713e-03
 5.920160109113e-03
 4.322806420645e-03
 3.127277814389e-03
 2.241736312745e-03
 1.592525845733e-03
 1.121410684204e-03
 7.829793548027e-04
 5.422923626063e-04
 3.728157905192e-04
 2.546538106268e-04
 1.730721215682e-04
 1.172906430634e-04
 7.951560028122e-05
 5.417759083560e-05
 3.734203804422e-05
 2.626039849426e-05
 1.903375474851e-05
 1.436437533704e-05
 1.137482867018e-05
 9.478085499018e-06
 8.285465887307e-06
 7.542243880029e-06
 7.083161032034e-06
 6.802066749945e-06
 6.631445474336e-06
 6.528769862522e-06
 6.467508623216e-06
 6.431266055833e-06
 6.410004189446e-06
 6.397634485101e-06
 6.390497313674e-06
 6.386412814011e-06
 6.384094302936e-06
 6.382788785976e-06
 6.382059487680e-06
 6.381655311407e-06
 6.381433092572e-06
 6.381311834384e-06
 6.381246184243e-06
 6.381210916871e-06
 6.381192075850e-06
 6.381182181324e-06
 6.381176926122e-06
 6.381174228918e-06
 6.381172765271e-06
 6.381172096625e-06
 6.381171670385e-06
 6.381171670400e-06
SCALARS H double 1
LOOKUP_TABLE default
 3.542055048139e+04
 3.542024808992e+04
 3.542024823654e+04
 3.542024852466e+04
 3.542024902724e+04
 3.542024986637e+04
 3.542025123561e+04
 3.542025344558e+04
 3.542025700679e+04
 3.542026281635e+04
 3.542027275493e+04
 3.542029087639e+04
 3.542031714742e+04
 3.542010814608e+04
 3.542007307436e+04
 3.542007422429e+04
 3.542008255960e+04
 3.542009352887e+04
 3.542010655196e+04
 3.542012190313e+04
 3.542013971605e+04
 3.542015975768e+04
 3.542018237612e+04
 3.542020721291e+04
 3.542023432107e+04
 3.542026333743e+04
 3.542029402914e+04
 3.542032602128e+04
 3.542035540035e+04
 3.542037159308e+04
 3.542041067064e+04
 3.542045139161e+04
 3.542049136292e+04
 3.542053004878e+04
 3.542056706130e+04
 3.542060184597e+04
 3.542063407546e+04
 3.542066397239e+04
 3.542069083630e+04
 3.542071505047e+04
 3.542073657437e+04
 3.542075513033e+04
 3.542077141289e+04
 3.542078499466e+04
 3.542079685876e+04
 3.542080665437e+04
 3.542081439678e+04
 3.542082103319e+04
 3.542082643325e+04
 3.542083040447e+04
 3.542083385157e+04
 3.542083623935e+04
 3.542083821822e+04