# vtk DataFile Version 3.0
Unstructured Grid from OpenGeoSys
ASCII
DATASET UNSTRUCTURED_GRID
FIELD TimesAndCycles 2
TIME 1 1 double
1.200000000000e+04
CYLCE 1 1 long
120
POINTS 101 double
0.000000000000e+00 0.000000000000e+00 0.000000000000e+00
5.000000000000e-03 0.000000000000e+00 0.000000000000e+00
1.000000000000e-02 0.000000000000e+00 0.000000000000e+00
1.500000000000e-02 0.000000000000e+00 0.000000000000e+00
2.000000000000e-02 0.000000000000e+00 0.000000000000e+00
2.500000000000e-02 0.000000000000e+00 0.000000000000e+00
3.000000000000e-02 0.000000000000e+00 0.000000000000e+00
3.500000000000e-02 0.000000000000e+00 0.000000000000e+00
4.000000000000e-02 0.000000000000e+00 0.000000000000e+00
4.500000000000e-02 0.000000000000e+00 0.000000000000e+00
5.000000000000e-02 0.000000000000e+00 0.000000000000e+00
5.500000000000e-02 0.000000000000e+00 0.000000000000e+00
6.000000000000e-02 0.000000000000e+00 0.000000000000e+00
6.500000000000e-02 0.000000000000e+00 0.000000000000e+00
7.000000000000e-02 0.000000000000e+00 0.000000000000e+00
7.500000000000e-02 0.000000000000e+00 0.000000000000e+00
8.000000000000e-02 0.000000000000e+00 0.000000000000e+00
8.500000000000e-02 0.000000000000e+00 0.000000000000e+00
9.000000000000e-02 0.000000000000e+00 0.000000000000e+00
9.500000000000e-02 0.000000000000e+00 0.000000000000e+00
1.000000000000e-01 0.000000000000e+00 0.000000000000e+00
1.050000000000e-01 0.000000000000e+00 0.000000000000e+00
1.100000000000e-01 0.000000000000e+00 0.000000000000e+00
1.150000000000e-01 0.000000000000e+00 0.000000000000e+00
1.200000000000e-01 0.000000000000e+00 0.000000000000e+00
1.250000000000e-01 0.000000000000e+00 0.000000000000e+00
1.300000000000e-01 0.000000000000e+00 0.000000000000e+00
1.350000000000e-01 0.000000000000e+00 0.000000000000e+00
1.400000000000e-01 0.000000000000e+00 0.000000000000e+00
1.450000000000e-01 0.000000000000e+00 0.000000000000e+00
1.500000000000e-01 0.000000000000e+00 0.000000000000e+00
1.550000000000e-01 0.000000000000e+00 0.000000000000e+00
1.600000000000e-01 0.000000000000e+00 0.000000000000e+00
1.650000000000e-01 0.000000000000e+00 0.000000000000e+00
1.700000000000e-01 0.000000000000e+00 0.000000000000e+00
1.750000000000e-01 0.000000000000e+00 0.000000000000e+00
1.800000000000e-01 0.000000000000e+00 0.000000000000e+00
1.850000000000e-01 0.000000000000e+00 0.000000000000e+00
1.900000000000e-01 0.000000000000e+00 0.000000000000e+00
1.950000000000e-01 0.000000000000e+00 0.000000000000e+00
2.000000000000e-01 0.000000000000e+00 0.000000000000e+00
2.050000000000e-01 0.000000000000e+00 0.000000000000e+00
2.100000000000e-01 0.000000000000e+00 0.000000000000e+00
2.150000000000e-01 0.000000000000e+00 0.000000000000e+00
2.200000000000e-01 0.000000000000e+00 0.000000000000e+00
2.250000000000e-01 0.000000000000e+00 0.000000000000e+00
2.300000000000e-01 0.000000000000e+00 0.000000000000e+00
2.350000000000e-01 0.000000000000e+00 0.000000000000e+00
2.400000000000e-01 0.000000000000e+00 0.000000000000e+00
2.450000000000e-01 0.000000000000e+00 0.000000000000e+00
2.500000000000e-01 0.000000000000e+00 0.000000000000e+00
2.550000000000e-01 0.000000000000e+00 0.000000000000e+00
2.600000000000e-01 0.000000000000e+00 0.000000000000e+00
2.650000000000e-01 0.000000000000e+00 0.000000000000e+00
2.700000000000e-01 0.000000000000e+00 0.000000000000e+00
2.750000000000e-01 0.000000000000e+00 0.000000000000e+00
2.800000000000e-01 0.000000000000e+00 0.000000000000e+00
2.850000000000e-01 0.000000000000e+00 0.000000000000e+00
2.900000000000e-01 0.000000000000e+00 0.000000000000e+00
2.950000000000e-01 0.000000000000e+00 0.000000000000e+00
3.000000000000e-01 0.000000000000e+00 0.000000000000e+00
3.050000000000e-01 0.000000000000e+00 0.000000000000e+00
3.100000000000e-01 0.000000000000e+00 0.000000000000e+00
3.150000000000e-01 0.000000000000e+00 0.000000000000e+00
3.200000000000e-01 0.000000000000e+00 0.000000000000e+00
3.250000000000e-01 0.000000000000e+00 0.000000000000e+00
3.300000000000e-01 0.000000000000e+00 0.000000000000e+00
3.350000000000e-01 0.000000000000e+00 0.000000000000e+00
3.400000000000e-01 0.000000000000e+00 0.000000000000e+00
3.450000000000e-01 0.000000000000e+00 0.000000000000e+00
3.500000000000e-01 0.000000000000e+00 0.000000000000e+00
3.550000000000e-01 0.000000000000e+00 0.000000000000e+00
3.600000000000e-01 0.000000000000e+00 0.000000000000e+00
3.650000000000e-01 0.000000000000e+00 0.000000000000e+00
3.700000000000e-01 0.000000000000e+00 0.000000000000e+00
3.750000000000e-01 0.000000000000e+00 0.000000000000e+00
3.800000000000e-01 0.000000000000e+00 0.000000000000e+00
3.850000000000e-01 0.000000000000e+00 0.000000000000e+00
3.900000000000e-01 0.000000000000e+00 0.000000000000e+00
3.950000000000e-01 0.000000000000e+00 0.000000000000e+00
4.000000000000e-01 0.000000000000e+00 0.000000000000e+00
4.050000000000e-01 0.000000000000e+00 0.000000000000e+00
4.100000000000e-01 0.000000000000e+00 0.000000000000e+00
4.150000000000e-01 0.000000000000e+00 0.000000000000e+00
4.200000000000e-01 0.000000000000e+00 0.000000000000e+00
4.250000000000e-01 0.000000000000e+00 0.000000000000e+00
4.300000000000e-01 0.000000000000e+00 0.000000000000e+00
4.350000000000e-01 0.000000000000e+00 0.000000000000e+00
4.400000000000e-01 0.000000000000e+00 0.000000000000e+00
4.450000000000e-01 0.000000000000e+00 0.000000000000e+00
4.500000000000e-01 0.000000000000e+00 0.000000000000e+00
4.550000000000e-01 0.000000000000e+00 0.000000000000e+00
4.600000000000e-01 0.000000000000e+00 0.000000000000e+00
4.650000000000e-01 0.000000000000e+00 0.000000000000e+00
4.700000000000e-01 0.000000000000e+00 0.000000000000e+00
4.750000000000e-01 0.000000000000e+00 0.000000000000e+00
4.800000000000e-01 0.000000000000e+00 0.000000000000e+00
4.850000000000e-01 0.000000000000e+00 0.000000000000e+00
4.900000000000e-01 0.000000000000e+00 0.000000000000e+00
4.950000000000e-01 0.000000000000e+00 0.000000000000e+00
5.000000000000e-01 0.000000000000e+00 0.000000000000e+00
CELLS 100 300
2 0 1
2 2 3
2 4 5
2 6 7
2 8 9
2 10 11
2 12 13
2 14 15
2 16 17
2 18 19
2 20 21
2 22 23
2 24 25
2 26 27
2 28 29
2 30 31
2 32 33
2 34 35
2 36 37
2 38 39
2 40 41
2 42 43
2 44 45
2 46 47
2 48 49
2 50 51
2 52 53
2 54 55
2 56 57
2 58 59
2 60 61
2 62 63
2 64 65
2 66 67
2 68 69
2 70 71
2 72 73
2 74 75
2 76 77
2 78 79
2 80 81
2 82 83
2 84 85
2 86 87
2 88 89
2 90 91
2 92 93
2 94 95
2 96 97
2 98 99
2 1 2
2 3 4
2 5 6
2 7 8
2 9 10
2 11 12
2 13 14
2 15 16
2 17 18
2 19 20
2 21 22
2 23 24
2 25 26
2 27 28
2 29 30
2 31 32
2 33 34
2 35 36
2 37 38
2 39 40
2 41 42
2 43 44
2 45 46
2 47 48
2 49 50
2 51 52
2 53 54
2 55 56
2 57 58
2 59 60
2 61 62
2 63 64
2 65 66
2 67 68
2 69 70
2 71 72
2 73 74
2 75 76
2 77 78
2 79 80
2 81 82
2 83 84
2 85 86
2 87 88
2 89 90
2 91 92
2 93 94
2 95 96
2 97 98
2 99 100

CELL_TYPES 100
3
3
3
3
3
3
3
3
3
3
3
3
3
3
3
3
3
3
3
3
3
3
3
3
3
3
3
3
3
3
3
3
3
3
3
3
3
3
3
3
3
3
3
3
3
3
3
3
3
3
3
3
3
3
3
3
3
3
3
3
3
3
3
3
3
3
3
3
3
3
3
3
3
3
3
3
3
3
3
3
3
3
3
3
3
3
3
3
3
3
3
3
3
3
3
3
3
3
3
3

POINT_DATA 101
SCALARS 1-C double 1
LOOKUP_TABLE default
9.970358361137e-06
4.045299685955e-04
1.163118611361e-03
2.535960342565e-03
4.924304480018e-03
8.951628905265e-03
1.556014488640e-02
2.625329691047e-02
4.398772536221e-02
7.600694859711e-02
1.400078861810e-01
1.382719558293e-01
1.360537656855e-01
1.333839149722e-01
1.302561942523e-01
1.267132045717e-01
1.228317411876e-01
1.187105437694e-01
1.144815159170e-01
1.102896461779e-01
1.063075085372e-01
1.027267308371e-01
9.941327629888e-02
9.639501891450e-02
9.847938899206e-02
1.013271831663e-01
1.036383011948e-01
1.058767133212e-01
1.080675849524e-01
1.101711772288e-01
1.121472760937e-01
1.139696118957e-01
1.155991813115e-01
1.170209569629e-01
1.182265503849e-01
1.192212667772e-01
1.200315565863e-01
1.206670513299e-01
1.211570582003e-01
1.215229206007e-01
1.217906223539e-01
1.219829506991e-01
1.221152946474e-01
1.222105096982e-01
1.222763474584e-01
1.223152302458e-01
1.223461052814e-01
1.223710616525e-01
1.223754354171e-01
1.223903540906e-01
1.223920780762e-01
1.223964729315e-01
1.223855394371e-01
1.223867731242e-01
1.223935681321e-01
1.223890496681e-01
1.224000213180e-01
1.223908719273e-01
1.223902084337e-01
1.223867032348e-01
1.223920450233e-01
1.223943964694e-01
1.223888845993e-01
1.223973611602e-01
1.224022970689e-01
1.224029405560e-01
1.223937880579e-01
1.223975701101e-01
1.223941280197e-01
1.223941237950e-01
1.223933507668e-01
1.223938555457e-01
1.223875338025e-01
1.223982086544e-01
1.224071433951e-01
1.223964538999e-01
1.223936747855e-01
1.223943066162e-01
1.223883939535e-01
1.223826402581e-01
1.223893048958e-01
1.223900140113e-01
1.223886424409e-01
1.223922037736e-01
1.223940507568e-01
1.223865758566e-01
1.223941365490e-01
1.223969311817e-01
1.223944635866e-01
1.223995034292e-01
1.224014464622e-01
1.223917600601e-01
1.223969934284e-01
1.223941261679e-01
1.223830365837e-01
1.223880202730e-01
1.223849693999e-01
1.223941170486e-01
1.223946759118e-01
1.223969549870e-01
1.223938721183e-01
SCALARS 2-Ca double 1
LOOKUP_TABLE default
9.970358361137e-06
2.691614702135e-04
7.636735563687e-04
1.647855117215e-03
3.162905369146e-03
5.675269675821e-03
9.727853649446e-03
1.616425167002e-02
2.657754181624e-02
4.472958034970e-02
7.963617292189e-02
8.263385337706e-02
8.657467511341e-02
9.172733850188e-02
9.836992661990e-02
1.068315238749e-01
1.174832099525e-01
1.307306245808e-01
1.470287390761e-01
1.668792170482e-01
1.906774835453e-01
2.186064447415e-01
2.541766114577e-01
3.032907589906e-01
2.933128376163e-01
2.696885160480e-01
2.498610673311e-01
2.317806363564e-01
2.153513270323e-01
2.005867373723e-01
1.874975544008e-01
1.760580965320e-01
1.661795859628e-01
1.577558784247e-01
1.506560961797e-01
1.447416439291e-01
1.398830990914e-01
1.359306270999e-01
1.327574267210e-01
1.302374438667e-01
1.282617294045e-01
1.267328774319e-01
1.255618247474e-01
1.246826916575e-01
1.240294242970e-01
1.235442672842e-01
1.231980196969e-01
1.229549359352e-01
1.227711319589e-01
1.226555418034e-01
1.225678392242e-01
1.225116860838e-01
1.224602399185e-01
1.224346824832e-01
1.224239648899e-01
1.224081297047e-01
1.224118711433e-01
1.223981541145e-01
1.223946370263e-01
1.223893686257e-01
1.223936327840e-01
1.223953326853e-01
1.223894310766e-01
1.223976769599e-01
1.224024777586e-01
1.224030429268e-01
1.223938454931e-01
1.223976020238e-01
1.223941455834e-01
1.223941333697e-01
1.223933559376e-01
1.223938583123e-01
1.223875352691e-01
1.223982094248e-01
1.224071437962e-01
1.223964541068e-01
1.223936748913e-01
1.223943066698e-01
1.223883939804e-01
1.223826402715e-01
1.223893049025e-01
1.223900140146e-01
1.223886424425e-01
1.223922037743e-01
1.223940507572e-01
1.223865758567e-01
1.223941365491e-01
1.223969311817e-01
1.223944635866e-01
1.223995034292e-01
1.224014464622e-01
1.223917600601e-01
1.223969934284e-01
1.223941261679e-01
1.223830365837e-01
1.223880202730e-01
1.223849693999e-01
1.223941170486e-01
1.223946759118e-01
1.223969549870e-01
1.223938721183e-01
SCALARS 3-Cl double 1
LOOKUP_TABLE default
3.988143344455e+00
3.987251690543e+00
3.985600422175e+00
3.982788534345e+00
3.978274377141e+00
3.971351362524e+00
3.961128499840e+00
3.946519651036e+00
3.926245683252e+00
3.898853427419e+00
3.862754341516e+00
3.816280431023e+00
3.757774379113e+00
3.685679959225e+00
3.598654755829e+00
3.495684424570e+00
3.376191005363e+00
3.240124682999e+00
3.088028821741e+00
2.921069834075e+00
2.741026343194e+00
2.550235821780e+00
2.351501110872e+00
2.147963607359e+00
1.942951887321e+00
1.739820037507e+00
1.541785413231e+00
1.351782498625e+00
1.172340517318e+00
1.005493812240e+00
8.527290949149e-01
7.149701831904e-01
5.925974776496e-01
4.854967240006e-01
3.931297729750e-01
3.146192041486e-01
2.488387495288e-01
1.945022994274e-01
1.502456585243e-01
1.146969012294e-01
8.653291546572e-02
6.452132292045e-02
4.754828874235e-02
3.463370746627e-02
2.493586026128e-02
1.774790982017e-02
1.248859247367e-02
8.689259258431e-03
5.979082843253e-03
4.069855129637e-03
2.741405509764e-03
1.828309945712e-03
1.208259286010e-03
7.922209520296e-04
5.163603775039e-04
3.355803808988e-04
2.184770206347e-04
1.434876237582e-04
9.600938123832e-05
6.628547231294e-05
4.788260651945e-05
3.661362972299e-05
2.978782686154e-05
2.569763685821e-05
2.327268300315e-05
2.185008230764e-05
2.102417575533e-05
2.054961099958e-05
2.027969749840e-05
2.012772476248e-05
2.004300873031e-05
1.999624912429e-05
1.997069108528e-05
1.995685602932e-05
1.994943821402e-05
1.994549855090e-05
1.994342568695e-05
1.994234510112e-05
1.994178693410e-05
1.994150122345e-05
1.994135626415e-05
1.994128340413e-05
1.994124707201e-05
1.994122912629e-05
1.994122033136e-05
1.994121605642e-05
1.994121400341e-05
1.994121302334e-05
1.994121255305e-05
1.994121233914e-05
1.994121223944e-05
1.994121218528e-05
1.994121216559e-05
1.994121215591e-05
1.994121214789e-05
1.994121214709e-05
1.994121214558e-05
1.994121214667e-05
1.994121214761e-05
1.994121215040e-05
1.994121214712e-05
SCALARS 4-H double 1
LOOKUP_TABLE default
2.701109245634e-04
8.827835576340e-04
2.336825393054e-03
4.997390854622e-03
9.532676005337e-03
1.689081906440e-02
2.826938316012e-02
4.520386666920e-02
7.026391413402e-02
1.090342820009e-01
1.719064472245e-01
1.703627926005e-01
1.683899896575e-01
1.659942900884e-01
1.631574945225e-01
1.599031625222e-01
1.562951268992e-01
1.523837126715e-01
1.482832520901e-01
1.441491927218e-01
1.401398916931e-01
1.364126531173e-01
1.328262123694e-01
1.293042544833e-01
1.317890067922e-01
1.353105919700e-01
1.382919089902e-01
1.412177806923e-01
1.441201007459e-01
1.469750450475e-01
1.496814107007e-01
1.522390406263e-01
1.545873500772e-01
1.566998020595e-01
1.585483941404e-01
1.601251175763e-01
1.614546616074e-01
1.625432957690e-01
1.634166998353e-01
1.641218050676e-01
1.646322467128e-01
1.650424349780e-01
1.653350574807e-01
1.655618901691e-01
1.657404853219e-01
1.658475673089e-01
1.659371769624e-01
1.659873703508e-01
1.660218087753e-01
1.660466277437e-01
1.660800544024e-01
1.660862018821e-01
1.660803233934e-01
1.660899254074e-01
1.661041570414e-01
1.661002497701e-01
1.661114420053e-01
1.660889247553e-01
1.661127170386e-01
1.660933350442e-01
1.660942570726e-01
1.661141047387e-01
1.661060991473e-01
1.661095255787e-01
1.661007135574e-01
1.661024342662e-01
1.660927125284e-01
1.661158394637e-01
1.660942984248e-01
1.660977676146e-01
1.661147201110e-01
1.661044038324e-01
1.660972704820e-01
1.661141771289e-01
1.661064005398e-01
1.661165502762e-01
1.660987202422e-01
1.661130076548e-01
1.661111736273e-01
1.660980890699e-01
1.661004966745e-01
1.661011340504e-01
1.661058160032e-01
1.661021991249e-01
1.661004047890e-01
1.660907136380e-01
1.661136087040e-01
1.661059894495e-01
1.661104371856e-01
1.660953408991e-01
1.660977090205e-01
1.661016829062e-01
1.661036635927e-01
1.661126949215e-01
1.660964182238e-01
1.661107819675e-01
1.660929133885e-01
1.660994574879e-01
1.661131381697e-01
1.661070971790e-01
1.661136193478e-01
SCALARS 5-Mg double 1
LOOKUP_TABLE default
1.994071672227e+00
1.993761213770e+00
1.993199656142e+00
1.992282372398e+00
1.990898587681e+00
1.988952040492e+00
1.986396541157e+00
1.983348870758e+00
1.980533025172e+00
1.980704081957e+00
1.991748884017e+00
1.963778317964e+00
1.928366280128e+00
1.884496556083e+00
1.831213645547e+00
1.767723892982e+00
1.693444033917e+00
1.608042260688e+00
1.511467187712e+00
1.403945346167e+00
1.286143196589e+00
1.159238196985e+00
1.020987220277e+00
8.670860636031e-01
7.766424950362e-01
7.015486858719e-01
6.246699404791e-01
5.499873262773e-01
4.788865165794e-01
4.123313459766e-01
3.510142691503e-01
2.953966069589e-01
2.457183341735e-01
2.020134405386e-01
1.641353406927e-01
1.317892249224e-01
1.045678322593e-01
8.198757394361e-02
6.352246074134e-02
4.863392734863e-02
3.679535068209e-02
2.751073472722e-02
2.032761427103e-02
1.484467177369e-02
1.071485329192e-02
7.644917871599e-03
5.392381821185e-03
3.760755346428e-03
2.593844879760e-03
1.769739851938e-03
1.194941606792e-03
7.989418205071e-04
5.294291615082e-04
3.482011170198e-04
2.277834308979e-04
1.487101537930e-04
9.738868501497e-05
6.446162465929e-05
4.357609797470e-05
3.047734523516e-05
2.235354262976e-05
1.737059891606e-05
1.434743612109e-05
1.253301871172e-05
1.145565179857e-05
1.082267042150e-05
1.045465273492e-05
1.024289174686e-05
1.012228508483e-05
1.005428761381e-05
1.001633358682e-05
9.995358022840e-06
9.983878949786e-06
9.977657621317e-06
9.974318070398e-06
9.972542374625e-06
9.971607043611e-06
9.971118922699e-06
9.970866519713e-06
9.970737187206e-06
9.970671501115e-06
9.970638454293e-06
9.970621958530e-06
9.970613803266e-06
9.970609802628e-06
9.970607856157e-06
9.970606920816e-06
9.970606473946e-06
9.970606259069e-06
9.970606161554e-06
9.970606116070e-06
9.970606090987e-06
9.970606082055e-06
9.970606077624e-06
9.970606073799e-06
9.970606073480e-06
9.970606072764e-06
9.970606073325e-06
9.970606073801e-06
9.970606075198e-06
9.970606073561e-06
SCALARS 6-O double 1
LOOKUP_TABLE default
2.010568337471e-02
2.163582015286e-02
2.471290943047e-02
3.028824464282e-02
3.992404466909e-02
5.599660699710e-02
8.197143931522e-02
1.231754982719e-01
1.898210892110e-01
3.064965483968e-01
5.315598789119e-01
5.276714214314e-01
5.226630307807e-01
5.166996619523e-01
5.098139989352e-01
5.021912761739e-01
4.941198129449e-01
4.859232434601e-01
4.780300059877e-01
4.709003146726e-01
4.650510454356e-01
4.610305584557e-01
4.582399868133e-01
4.565834501028e-01
4.733045716080e-01
4.927499016150e-01
5.100857871058e-01
5.268144904450e-01
5.429136272590e-01
5.581605078414e-01
5.723169690731e-01
5.852625336377e-01
5.968327636899e-01
6.069744340092e-01
6.156725810304e-01
6.229785888657e-01
6.290348275946e-01
6.339311965041e-01
6.378298436000e-01
6.408800014459e-01
6.432059813910e-01
6.449788107700e-01
6.462861275638e-01
6.472664959726e-01
6.479898294196e-01
6.484835697521e-01
6.488577407544e-01
6.491287308283e-01
6.492810697978e-01
6.494241803663e-01
6.495058675189e-01
6.495632305860e-01
6.495554040474e-01
6.495826354491e-01
6.496225553012e-01
6.496151849253e-01
6.496589680256e-01
6.496236372350e-01
6.496356804814e-01
6.496168120914e-01
6.496341270531e-01
6.496516125724e-01
6.496313814744e-01
6.496587085867e-01
6.496692195033e-01
6.496720744114e-01
6.496397931765e-01
6.496627241595e-01
6.496416395381e-01
6.496433683013e-01
6.496495292448e-01
6.496458875874e-01
6.496233568499e-01
6.496638353321e-01
6.496867516809e-01
6.496597581649e-01
6.496425059205e-01
6.496515451372e-01
6.496328901655e-01
6.496090867967e-01
6.496302843658e-01
6.496327306080e-01
6.496309567965e-01
6.496398324095e-01
6.496444761594e-01
6.496172058719e-01
6.496513355250e-01
6.496559098223e-01
6.496507308352e-01
6.496583023040e-01
6.496653154648e-01
6.496382431388e-01
6.496549335665e-01
6.496508474776e-01
6.496094403528e-01
6.496315732386e-01
6.496134863872e-01
6.496442013615e-01
6.496527183078e-01
6.496565350937e-01
6.496505474944e-01
SCALARS 7-Sn double 1
LOOKUP_TABLE default
0.000000000000e+00
0.000000000000e+00
0.000000000000e+00
0.000000000000e+00
0.000000000000e+00
0.000000000000e+00
0.000000000000e+00
0.000000000000e+00
0.000000000000e+00
0.000000000000e+00
0.000000000000e+00
0.000000000000e+00
0.000000000000e+00
0.000000000000e+00
0.000000000000e+00
0.000000000000e+00
0.000000000000e+00
0.000000000000e+00
0.000000000000e+00
0.000000000000e+00
0.000000000000e+00
0.000000000000e+00
0.000000000000e+00
0.000000000000e+00
0.000000000000e+00
0.000000000000e+00
0.000000000000e+00
0.000000000000e+00
0.000000000000e+00
0.000000000000e+00
0.000000000000e+00
0.000000000000e+00
0.000000000000e+00
0.000000000000e+00
0.000000000000e+00
0.000000000000e+00
0.000000000000e+00
0.000000000000e+00
0.000000000000e+00
0.000000000000e+00
0.000000000000e+00
0.000000000000e+00
0.000000000000e+00
0.000000000000e+00
0.000000000000e+00
0.000000000000e+00
0.000000000000e+00
0.000000000000e+00
0.000000000000e+00
0.000000000000e+00
0.000000000000e+00
0.000000000000e+00
0.000000000000e+00
0.000000000000e+00
0.000000000000e+00
0.000000000000e+00
0.000000000000e+00
0.000000000000e+00
0.000000000000e+00
0.000000000000e+00
0.000000000000e+00
0.000000000000e+00
0.000000000000e+00
0.000000000000e+00
0.000000000000e+00
0.000000000000e+00
0.000000000000e+00
0.000000000000e+00
0.000000000000e+00
0.000000000000e+00
0.000000000000e+00
0.000000000000e+00
0.000000000000e+00
0.000000000000e+00
0.000000000000e+00
0.000000000000e+00
0.000000000000e+00
0.000000000000e+00
0.000000000000e+00
0.000000000000e+00
0.000000000000e+00
0.000000000000e+00
0.000000000000e+00
0.000000000000e+00
0.000000000000e+00
0.000000000000e+00
0.000000000000e+00
0.000000000000e+00
0.000000000000e+00
0.000000000000e+00
0.000000000000e+00
0.000000000000e+00
0.000000000000e+00
0.000000000000e+00
0.000000000000e+00
0.000000000000e+00
0.000000000000e+00
0.000000000000e+00
0.000000000000e+00
0.000000000000e+00
0.000000000000e+00
SCALARS 8-Zz double 1
LOOKUP_TABLE default
1.035722930241e-15
-5.035431276846e-15
-2.279696712576e-15
-9.907385172717e-16
1.430533031256e-15
-2.947727403446e-16
-7.144789119637e-16
1.212804229864e-15
2.277078682882e-16
-4.234808983323e-16
-2.263679073637e-16
-3.781154049855e-16
-3.899822646950e-16
3.999531189584e-16
-5.762743278172e-16
-5.682180047473e-16
-4.632472898137e-16
4.835791465269e-16
5.270673302626e-16
-8.052661659457e-16
1.304743857814e-16
1.998499483999e-16
-8.484852226771e-16
-2.245335087632e-16
-3.246464417155e-16
4.762092863875e-16
1.757747355390e-16
2.048346159107e-16
-3.109570696268e-17
2.932885122507e-16
-2.602565172013e-17
-6.637927906570e-17
7.183016274285e-17
4.100461783474e-18
5.529001045488e-17
-9.738354462045e-17
5.713354579774e-17
-4.694028631898e-17
2.367573397063e-18
-2.092160912229e-17
-2.377296028560e-17
-5.041591073965e-18
2.254158593979e-17
-7.066038631963e-18
-1.946786527974e-17
-1.105794295400e-17
-5.090804069350e-17
-1.085025891871e-17
1.565951756971e-17
-2.337351663817e-17
-2.928767431625e-17
1.417870571528e-17
-4.319989648765e-17
1.459505460746e-17
-2.366368246999e-17
-1.260037470162e-17
2.479920769258e-17
-1.986525259446e-17
6.827712977237e-18
-1.592249100281e-17
-3.332252873881e-17
1.526384651997e-17
1.429189027518e-17
-9.639961846050e-18
-4.771811551951e-18
2.278573510801e-17
7.385006288019e-18
1.329597585976e-18
9.771371905083e-19
1.336115210321e-17
-1.333075581788e-17
-3.396351513976e-18
2.387467734051e-17
2.507459698660e-18
3.866161246869e-17
1.863087480097e-17
4.831868088320e-18
-2.756590057032e-17
-1.195150972238e-17
-4.986991123685e-18
-5.006396803116e-18
-6.816891171686e-18
1.211277946034e-17
-1.295672848163e-17
3.188192333097e-18
3.922236996797e-18
-1.411135279668e-17
1.511672485579e-17
2.723117514433e-17
5.615771317565e-17
4.098252595377e-17
-3.310157052050e-17
-3.761097568674e-17
-1.532844028759e-17
-2.731069860518e-17
-2.384506290617e-17
-6.161772229852e-18
-2.020600214274e-18
-5.943435003376e-18
-2.980609514252e-17
-6.059930517208e-18
SCALARS C double 1
LOOKUP_TABLE default
 3.190559220786e-06
 1.294502919345e-04
 3.721999740041e-04
 8.115117102921e-04
 1.575785978789e-03
 2.864536783515e-03
 4.979273365286e-03
 8.401100568898e-03
 1.407614844814e-02
 2.432235544651e-02
 4.758193979974e-02
 1.102254610411e-01
 1.190061789793e-01
 1.194129985775e-01
 1.183901883546e-01
 1.170507113030e-01
 1.154573016930e-01
 1.137368125839e-01
 1.119657732933e-01
 1.101324524946e-01
 1.083009558985e-01
 1.066018047487e-01
 1.049009021903e-01
 1.033322607525e-01
 1.015365877951e-01
 1.023380466201e-01
 1.031120558016e-01
 1.036961661590e-01
 1.043404995706e-01
 1.049669950650e-01
 1.055005659358e-01
 1.060176059077e-01
 1.065134628325e-01
 1.069508651200e-01
 1.072996195482e-01
 1.076131451593e-01
 1.078970457460e-01
 1.080633266329e-01
 1.082496168341e-01
 1.083577547551e-01
 1.084239170669e-01
 1.085199662362e-01
 1.085436657112e-01
 1.085910907724e-01
 1.086008544756e-01
 1.085852289698e-01
 1.086485591376e-01
 1.086539717542e-01
 1.085972151710e-01
 1.086517540946e-01
 1.086003292242e-01
 1.086673451470e-01
 1.086496181948e-01
 1.085989437010e-01
 1.086536143148e-01
 1.086329968369e-01
 1.086714153659e-01
 1.086263169552e-01
 1.086284406194e-01
 1.086772301837e-01
 1.086114941748e-01
 1.086588773669e-01
 1.086361021578e-01
 1.086206173565e-01
 1.086426052207e-01
 1.086515626823e-01
 1.086255757406e-01
 1.086501889630e-01
 1.086189011831e-01
 1.086807942381e-01
 1.085806171192e-01
 1.086761863748e-01
 1.086370945005e-01
 1.086431957348e-01
 1.086387966637e-01
 1.086246692334e-01
 1.086591784200e-01
 1.086361593587e-01
 1.086210149826e-01
 1.086566206994e-01
 1.086140331546e-01
 1.086605321174e-01
 1.086410340910e-01
 1.086236980263e-01
 1.086663632788e-01
 1.086364325512e-01
 1.086258495466e-01
 1.086380245677e-01
 1.086526489726e-01
 1.086305652841e-01
 1.086309661653e-01
 1.086538242755e-01
 1.086190711878e-01
 1.086869506966e-01
 1.086218798294e-01
 1.086216810585e-01
 1.086416079435e-01
 1.086419111197e-01
 1.086150379887e-01
 1.087072170660e-01
 1.085369593738e-01
SCALARS Ca double 1
LOOKUP_TABLE default
 3.190559220786e-06
 8.613213754628e-05
 2.443768632465e-04
 5.273164970443e-04
 1.012135206740e-03
 1.816096144601e-03
 3.112930048642e-03
 5.172588584356e-03
 8.504859501409e-03
 1.431354333149e-02
 2.687329929894e-02
 5.943204541959e-02
 6.543837013633e-02
 6.771780281225e-02
 6.983245520530e-02
 7.243729892360e-02
 7.567015927569e-02
 7.970846894580e-02
 8.471497865070e-02
 9.082115698725e-02
 9.815798107178e-02
 1.068185809884e-01
 1.178807162356e-01
 1.332958175852e-01
 1.603902910029e-01
 1.562135305612e-01
 1.499032169468e-01
 1.439853153598e-01
 1.386712067923e-01
 1.338998984119e-01
 1.296125920165e-01
 1.258858692495e-01
 1.226991502172e-01
 1.199860061060e-01
 1.176770472732e-01
 1.157796446605e-01
 1.142495228485e-01
 1.129476582142e-01
 1.119617251226e-01
 1.111463949626e-01
 1.104946659534e-01
 1.100399388432e-01
 1.096465524812e-01
 1.093821869450e-01
 1.091618376078e-01
 1.089785198025e-01
 1.089211710422e-01
 1.088408110392e-01
 1.087238377362e-01
 1.087366139423e-01
 1.086565726458e-01
 1.087042132599e-01
 1.086735222868e-01
 1.086142746562e-01
 1.086633412521e-01
 1.086391024328e-01
 1.086752073002e-01
 1.086286472491e-01
 1.086298577654e-01
 1.086780831066e-01
 1.086120022569e-01
 1.086591769552e-01
 1.086362770301e-01
 1.086207184121e-01
 1.086426630412e-01
 1.086515954409e-01
 1.086255941198e-01
 1.086501991754e-01
 1.086189068034e-01
 1.086807973020e-01
 1.085806187739e-01
 1.086761872601e-01
 1.086370949698e-01
 1.086431959814e-01
 1.086387967920e-01
 1.086246692996e-01
 1.086591784539e-01
 1.086361593759e-01
 1.086210149913e-01
 1.086566207037e-01
 1.086140331567e-01
 1.086605321184e-01
 1.086410340915e-01
 1.086236980265e-01
 1.086663632789e-01
 1.086364325513e-01
 1.086258495466e-01
 1.086380245677e-01
 1.086526489726e-01
 1.086305652841e-01
 1.086309661653e-01
 1.086538242755e-01
 1.086190711878e-01
 1.086869506966e-01
 1.086218798294e-01
 1.086216810585e-01
 1.086416079435e-01
 1.086419111197e-01
 1.086150379887e-01
 1.087072170660e-01
 1.085369593738e-01
SCALARS Cl double 1
LOOKUP_TABLE default
 1.276223688314e+00
 1.275927460082e+00
 1.275399051339e+00
 1.274499242354e+00
 1.273054704215e+00
 1.270839327524e+00
 1.267567993725e+00
 1.262893136757e+00
 1.256405431885e+00
 1.247639862484e+00
 1.236087746729e+00
 1.221208253891e+00
 1.202485191846e+00
 1.179414877894e+00
 1.151566879315e+00
 1.118616472077e+00
 1.080378703076e+00
 1.036837619300e+00
 9.881670922215e-01
 9.347403776325e-01
 8.771266311017e-01
 8.160738348791e-01
 7.524789027604e-01
 6.873470690641e-01
 6.217430149454e-01
 5.567409385921e-01
 4.933700245723e-01
 4.325692596483e-01
 3.751479794044e-01
 3.217571758583e-01
 2.728725976631e-01
 2.287898627956e-01
 1.896306995631e-01
 1.553585478622e-01
 1.258012008991e-01
 1.006778841250e-01
 7.962819303263e-02
 6.224057442702e-02
 4.807848589667e-02
 3.670291313574e-02
 2.769046114434e-02
 2.064676971277e-02
 1.521541291432e-02
 1.108275760832e-02
 7.979454572119e-03
 5.679316419607e-03
 3.996339206960e-03
 2.780555738161e-03
 1.913301551477e-03
 1.302350258934e-03
 8.772474899418e-04
 5.850576621568e-04
 3.866419673376e-04
 2.535100477281e-04
 1.652348916264e-04
 1.073854432064e-04
 6.991246488814e-05
 4.591592048245e-05
 3.072292228316e-05
 2.121129598353e-05
 1.532239436204e-05
 1.171633107304e-05
 9.532079855047e-06
 8.223222468410e-06
 7.447239229695e-06
 6.992008181742e-06
 6.727718789211e-06
 6.575858443551e-06
 6.489486370076e-06
 6.440855174688e-06
 6.413746188863e-06
 6.398783083211e-06
 6.390604559334e-06
 6.386177350941e-06
 6.383803661556e-06
 6.382542980516e-06
 6.381879639696e-06
 6.381533870233e-06
 6.381355267013e-06
 6.381263812261e-06
 6.381217458341e-06
 6.381194109116e-06
 6.381182496906e-06
 6.381176767898e-06
 6.381173922539e-06
 6.381172574846e-06
 6.381171927458e-06
 6.381171605530e-06
 6.381171443686e-06
 6.381171392686e-06
 6.381171360946e-06
 6.381171324494e-06
 6.381171345025e-06
 6.381171291256e-06
 6.381171334002e-06
 6.381171335066e-06
 6.381171319190e-06
 6.381171321471e-06
 6.381171341696e-06
 6.381171275234e-06
 6.381171398856e-06
SCALARS H double 1
LOOKUP_TABLE default
 3.542055048139e+04
 3.542024827640e+04
 3.542024882317e+04
 3.542024980625e+04
 3.542025147380e+04
 3.542025421831e+04
 3.542025865754e+04
 3.542026578503e+04
 3.542027749700e+04
 3.542029824530e+04
 3.542032930468e+04
 3.542011221574e+04
 3.542008858572e+04
 3.542009665114e+04
 3.542011189607e+04
 3.542013059726e+04
 3.542015273848e+04
 3.542017800696e+04
 3.542020619630e+04
 3.542023730588e+04
 3.542027100879e+04
 3.542030669384e+04
 3.542034363734e+04
 3.542038011535e+04
 3.542040068012e+04
 3.542044410603e+04
 3.542048886972e+04
 3.542053251874e+04
 3.542057356412e+04
 3.542061181080e+04
 3.542064715960e+04
 3.542067903450e+04
 3.542070728167e+04
 3.542073203353e+04
 3.542075349958e+04
 3.542077165034e+04
 3.542078675078e+04
 3.542079945366e+04
 3.542080954923e+04
 3.542081777887e+04
 3.542082434089e+04
 3.542082925498e+04
 3.542083321978e+04
 3.542083610506e+04
 3.542083836505e+04
 3.542084011437e+04
 3.542084109270e+04
 3.542084197070e+04
 3.542084281672e+04
 3.542084305077e+04
 3.542084355963e+04
 3.542084349885e+04