# vtk DataFile Version 3.0
Unstructured Grid from OpenGeoSys
ASCII
DATASET UNSTRUCTURED_GRID
FIELD TimesAndCycles 2
TIME 1 1 double
1.700000000000e+04
CYLCE 1 1 long
170
POINTS 101 double
0.000000000000e+00 0.000000000000e+00 0.000000000000e+00
5.000000000000e-03 0.000000000000e+00 0.000000000000e+00
1.000000000000e-02 0.000000000000e+00 0.000000000000e+00
1.500000000000e-02 0.000000000000e+00 0.000000000000e+00
2.000000000000e-02 0.000000000000e+00 0.000000000000e+00
2.500000000000e-02 0.000000000000e+00 0.000000000000e+00
3.000000000000e-02 0.000000000000e+00 0.000000000000e+00
3.500000000000e-02 0.000000000000e+00 0.000000000000e+00
4.000000000000e-02 0.000000000000e+00 0.000000000000e+00
4.500000000000e-02 0.000000000000e+00 0.000000000000e+00
5.000000000000e-02 0.000000000000e+00 0.000000000000e+00
5.500000000000e-02 0.000000000000e+00 0.000000000000e+00
6.000000000000e-02 0.000000000000e+00 0.000000000000e+00
6.500000000000e-02 0.000000000000e+00 0.000000000000e+00
7.000000000000e-02 0.000000000000e+00 0.000000000000e+00
7.500000000000e-02 0.000000000000e+00 0.000000000000e+00
8.000000000000e-02 0.000000000000e+00 0.000000000000e+00
8.500000000000e-02 0.000000000000e+00 0.000000000000e+00
9.000000000000e-02 0.000000000000e+00 0.000000000000e+00
9.500000000000e-02 0.000000000000e+00 0.000000000000e+00
1.000000000000e-01 0.000000000000e+00 0.000000000000e+00
1.050000000000e-01 0.000000000000e+00 0.000000000000e+00
1.100000000000e-01 0.000000000000e+00 0.000000000000e+00
1.150000000000e-01 0.000000000000e+00 0.000000000000e+00
1.200000000000e-01 0.000000000000e+00 0.000000000000e+00
1.250000000000e-01 0.000000000000e+00 0.000000000000e+00
1.300000000000e-01 0.000000000000e+00 0.000000000000e+00
1.350000000000e-01 0.000000000000e+00 0.000000000000e+00
1.400000000000e-01 0.000000000000e+00 0.000000000000e+00
1.450000000000e-01 0.000000000000e+00 0.000000000000e+00
1.500000000000e-01 0.000000000000e+00 0.000000000000e+00
1.550000000000e-01 0.000000000000e+00 0.000000000000e+00
1.600000000000e-01 0.000000000000e+00 0.000000000000e+00
1.650000000000e-01 0.000000000000e+00 0.000000000000e+00
1.700000000000e-01 0.000000000000e+00 0.000000000000e+00
1.750000000000e-01 0.000000000000e+00 0.000000000000e+00
1.800000000000e-01 0.000000000000e+00 0.000000000000e+00
1.850000000000e-01 0.000000000000e+00 0.000000000000e+00
1.900000000000e-01 0.000000000000e+00 0.000000000000e+00
1.950000000000e-01 0.000000000000e+00 0.000000000000e+00
2.000000000000e-01 0.000000000000e+00 0.000000000000e+00
2.050000000000e-01 0.000000000000e+00 0.000000000000e+00
2.100000000000e-01 0.000000000000e+00 0.000000000000e+00
2.150000000000e-01 0.000000000000e+00 0.000000000000e+00
2.200000000000e-01 0.000000000000e+00 0.000000000000e+00
2.250000000000e-01 0.000000000000e+00 0.000000000000e+00
2.300000000000e-01 0.000000000000e+00 0.000000000000e+00
2.350000000000e-01 0.000000000000e+00 0.000000000000e+00
2.400000000000e-01 0.000000000000e+00 0.000000000000e+00
2.450000000000e-01 0.000000000000e+00 0.000000000000e+00
2.500000000000e-01 0.000000000000e+00 0.000000000000e+00
2.550000000000e-01 0.000000000000e+00 0.000000000000e+00
2.600000000000e-01 0.000000000000e+00 0.000000000000e+00
2.650000000000e-01 0.000000000000e+00 0.000000000000e+00
2.700000000000e-01 0.000000000000e+00 0.000000000000e+00
2.750000000000e-01 0.000000000000e+00 0.000000000000e+00
2.800000000000e-01 0.000000000000e+00 0.000000000000e+00
2.850000000000e-01 0.000000000000e+00 0.000000000000e+00
2.900000000000e-01 0.000000000000e+00 0.000000000000e+00
2.950000000000e-01 0.000000000000e+00 0.000000000000e+00
3.000000000000e-01 0.000000000000e+00 0.000000000000e+00
3.050000000000e-01 0.000000000000e+00 0.000000000000e+00
3.100000000000e-01 0.000000000000e+00 0.000000000000e+00
3.150000000000e-01 0.000000000000e+00 0.000000000000e+00
3.200000000000e-01 0.000000000000e+00 0.000000000000e+00
3.250000000000e-01 0.000000000000e+00 0.000000000000e+00
3.300000000000e-01 0.000000000000e+00 0.000000000000e+00
3.350000000000e-01 0.000000000000e+00 0.000000000000e+00
3.400000000000e-01 0.000000000000e+00 0.000000000000e+00
3.450000000000e-01 0.000000000000e+00 0.000000000000e+00
3.500000000000e-01 0.000000000000e+00 0.000000000000e+00
3.550000000000e-01 0.000000000000e+00 0.000000000000e+00
3.600000000000e-01 0.000000000000e+00 0.000000000000e+00
3.650000000000e-01 0.000000000000e+00 0.000000000000e+00
3.700000000000e-01 0.000000000000e+00 0.000000000000e+00
3.750000000000e-01 0.000000000000e+00 0.000000000000e+00
3.800000000000e-01 0.000000000000e+00 0.000000000000e+00
3.850000000000e-01 0.000000000000e+00 0.000000000000e+00
3.900000000000e-01 0.000000000000e+00 0.000000000000e+00
3.950000000000e-01 0.000000000000e+00 0.000000000000e+00
4.000000000000e-01 0.000000000000e+00 0.000000000000e+00
4.050000000000e-01 0.000000000000e+00 0.000000000000e+00
4.100000000000e-01 0.000000000000e+00 0.000000000000e+00
4.150000000000e-01 0.000000000000e+00 0.000000000000e+00
4.200000000000e-01 0.000000000000e+00 0.000000000000e+00
4.250000000000e-01 0.000000000000e+00 0.000000000000e+00
4.300000000000e-01 0.000000000000e+00 0.000000000000e+00
4.350000000000e-01 0.000000000000e+00 0.000000000000e+00
4.400000000000e-01 0.000000000000e+00 0.000000000000e+00
4.450000000000e-01 0.000000000000e+00 0.000000000000e+00
4.500000000000e-01 0.000000000000e+00 0.000000000000e+00
4.550000000000e-01 0.000000000000e+00 0.000000000000e+00
4.600000000000e-01 0.000000000000e+00 0.000000000000e+00
4.650000000000e-01 0.000000000000e+00 0.000000000000e+00
4.700000000000e-01 0.000000000000e+00 0.000000000000e+00
4.750000000000e-01 0.000000000000e+00 0.000000000000e+00
4.800000000000e-01 0.000000000000e+00 0.000000000000e+00
4.850000000000e-01 0.000000000000e+00 0.000000000000e+00
4.900000000000e-01 0.000000000000e+00 0.000000000000e+00
4.950000000000e-01 0.000000000000e+00 0.000000000000e+00
5.000000000000e-01 0.000000000000e+00 0.000000000000e+00
CELLS 100 300
2 0 1
2 2 3
2 4 5
2 6 7
2 8 9
2 10 11
2 12 13
2 14 15
2 16 17
2 18 19
2 20 21
2 22 23
2 24 25
2 26 27
2 28 29
2 30 31
2 32 33
2 34 35
2 36 37
2 38 39
2 40 41
2 42 43
2 44 45
2 46 47
2 48 49
2 50 51
2 52 53
2 54 55
2 56 57
2 58 59
2 60 61
2 62 63
2 64 65
2 66 67
2 68 69
2 70 71
2 72 73
2 74 75
2 76 77
2 78 79
2 80 81
2 82 83
2 84 85
2 86 87
2 88 89
2 90 91
2 92 93
2 94 95
2 96 97
2 98 99
2 1 2
2 3 4
2 5 6
2 7 8
2 9 10
2 11 12
2 13 14
2 15 16
2 17 18
2 19 20
2 21 22
2 23 24
2 25 26
2 27 28
2 29 30
2 31 32
2 33 34
2 35 36
2 37 38
2 39 40
2 41 42
2 43 44
2 45 46
2 47 48
2 49 50
2 51 52
2 53 54
2 55 56
2 57 58
2 59 60
2 61 62
2 63 64
2 65 66
2 67 68
2 69 70
2 71 72
2 73 74
2 75 76
2 77 78
2 79 80
2 81 82
2 83 84
2 85 86
2 87 88
2 89 90
2 91 92
2 93 94
2 95 96
2 97 98
2 99 100

CELL_TYPES 100
3
3
3
3
3
3
3
3
3
3
3
3
3
3
3
3
3
3
3
3
3
3
3
3
3
3
3
3
3
3
3
3
3
3
3
3
3
3
3
3
3
3
3
3
3
3
3
3
3
3
3
3
3
3
3
3
3
3
3
3
3
3
3
3
3
3
3
3
3
3
3
3
3
3
3
3
3
3
3
3
3
3
3
3
3
3
3
3
3
3
3
3
3
3
3
3
3
3
3
3

POINT_DATA 101
SCALARS 1-C double 1
LOOKUP_TABLE default
9.970358361137e-06
7.835522826377e-05
2.103683659488e-04
4.506147472392e-04
8.717475999164e-04
1.591075577311e-03
2.796530405484e-03
4.788993053580e-03
8.058840549275e-03
1.342459024089e-02
2.219411051082e-02
3.608953579931e-02
5.689403954890e-02
8.796453294783e-02
1.421115310461e-01
1.411668014245e-01
1.399770219178e-01
1.384986620157e-01
1.366987580594e-01
1.345468692052e-01
1.320363461682e-01
1.291751464121e-01
1.259780900647e-01
1.224959462235e-01
1.187890248388e-01
1.149534640106e-01
1.110482433747e-01
1.072079280413e-01
1.035546858847e-01
1.001689252895e-01
9.694117329551e-02
9.456295677559e-02
9.470821122849e-02
9.704531966384e-02
9.885094263033e-02
1.006889688044e-01
1.025731687656e-01
1.044604232134e-01
1.063357876003e-01
1.081755799853e-01
1.099528168710e-01
1.116430285698e-01
1.132220846413e-01
1.146722699648e-01
1.159799022618e-01
1.171356476325e-01
1.181392561516e-01
1.189941120963e-01
1.197132170586e-01
1.203206606113e-01
1.207917286330e-01
1.211790043112e-01
1.214834654181e-01
1.217030819293e-01
1.218935015956e-01
1.220336543654e-01
1.221385308978e-01
1.222107399782e-01
1.222613988795e-01
1.223004063977e-01
1.223266066108e-01
1.223389000552e-01
1.223630505796e-01
1.223753696141e-01
1.223878247381e-01
1.223792309175e-01
1.223814712533e-01
1.223907495148e-01
1.223919142354e-01
1.223924804352e-01
1.223974144598e-01
1.223862404886e-01
1.223934120927e-01
1.223936688996e-01
1.223942115750e-01
1.223850951767e-01
1.223944732592e-01
1.223904774869e-01
1.223885727682e-01
1.224020375306e-01
1.223988450421e-01
1.223922103801e-01
1.223938412545e-01
1.223972578131e-01
1.223988300723e-01
1.223918573577e-01
1.223953392009e-01
1.224007918719e-01
1.223870213448e-01
1.223939536416e-01
1.223903384210e-01
1.223845384469e-01
1.223870302292e-01
1.223955837592e-01
1.223941029217e-01
1.223988436344e-01
1.223818676292e-01
1.223895657223e-01
1.224003934991e-01
1.223895325862e-01
1.223918175910e-01
SCALARS 2-Ca double 1
LOOKUP_TABLE default
9.970358361137e-06
5.145714568943e-05
1.311650487940e-04
2.751552451265e-04
5.252060059329e-04
9.477009985534e-04
1.647337780606e-03
2.789169074781e-03
4.637916690246e-03
7.628498749549e-03
1.244799887702e-02
1.999963128133e-02
3.122775413407e-02
4.787593206712e-02
7.642862952889e-02
7.789680105265e-02
7.981643952190e-02
8.229766988473e-02
8.547668872741e-02
8.951318992284e-02
9.460235709284e-02
1.009715871344e-01
1.088779885355e-01
1.186244014528e-01
1.305476737896e-01
1.450349213460e-01
1.624962149495e-01
1.834086989282e-01
2.081608102070e-01
2.373919475982e-01
2.743077424917e-01
3.139280725880e-01
3.260359640538e-01
3.041494954141e-01
2.860240965590e-01
2.685880912860e-01
2.521085793881e-01
2.366464255760e-01
2.222870567815e-01
2.090901978414e-01
1.970843855118e-01
1.862709209318e-01
1.766233134086e-01
1.680962788402e-01
1.606270101048e-01
1.541395805740e-01
1.485539368235e-01
1.437846370973e-01
1.397507561356e-01
1.363808602242e-01
1.335561015368e-01
1.312387340449e-01
1.293450441499e-01
1.277952248121e-01
1.265748313087e-01
1.256007175857e-01
1.248337860248e-01
1.242302354597e-01
1.237619386284e-01
1.234060688628e-01
1.231345444626e-01
1.229243968478e-01
1.227838489009e-01
1.226753127592e-01
1.225998719895e-01
1.225279165839e-01
1.224848813457e-01
1.224620888914e-01
1.224407326845e-01
1.224256197209e-01
1.224197308251e-01
1.224011492647e-01
1.224032934401e-01
1.224001666610e-01
1.223984509600e-01
1.223878396044e-01
1.223962361654e-01
1.223916011962e-01
1.223892835642e-01
1.224024837224e-01
1.223991230155e-01
1.223923822538e-01
1.223939467320e-01
1.223973220632e-01
1.223988689206e-01
1.223918806748e-01
1.223953530940e-01
1.224008000900e-01
1.223870261709e-01
1.223939564555e-01
1.223903400501e-01
1.223845393834e-01
1.223870307637e-01
1.223955840622e-01
1.223941030923e-01
1.223988437297e-01
1.223818676821e-01
1.223895657516e-01
1.224003935151e-01
1.223895325954e-01
1.223918175979e-01
SCALARS 3-Cl double 1
LOOKUP_TABLE default
3.988143344455e+00
3.988043473692e+00
3.987856468918e+00
3.987532352610e+00
3.986999732962e+00
3.986159188358e+00
3.984875523361e+00
3.982969028611e+00
3.980206019530e+00
3.976289097504e+00
3.970847750895e+00
3.963430082549e+00
3.953496689523e+00
3.940417926047e+00
3.923475411889e+00
3.901865013732e+00
3.874717673502e+00
3.841112636778e+00
3.800106033138e+00
3.750764128378e+00
3.692202248010e+00
3.623627824567e+00
3.544385456853e+00
3.454001411951e+00
3.352224700128e+00
3.239061784507e+00
3.114802123687e+00
2.980032195231e+00
2.835636228574e+00
2.682782760343e+00
2.522897098169e+00
2.357620923303e+00
2.188759737251e+00
2.018224589020e+00
1.847964872103e+00
1.679903329954e+00
1.515871941720e+00
1.357553996139e+00
1.206434985537e+00
1.063764553676e+00
9.305308988291e-01
8.074481170598e-01
6.949561360538e-01
5.932321176772e-01
5.022116119773e-01
4.216173215256e-01
3.509931212141e-01
2.897409529858e-01
2.371583616740e-01
1.924747172102e-01
1.548845417759e-01
1.235767842580e-01
9.775931097755e-02
7.667828954080e-02
5.963249109383e-02
4.598282026873e-02
3.515758898042e-02
2.665417867999e-02
2.003779730775e-02
1.493803875922e-02
1.104390929533e-02
8.097910241943e-03
5.889672669991e-03
4.249538901546e-03
3.042386463527e-03
2.161898927898e-03
1.525409441468e-03
1.069378140450e-03
7.455148339453e-04
5.175223167641e-04
3.584117233654e-04
2.483275318837e-04
1.728138398779e-04
1.214534060422e-04
8.681474765674e-05
6.364881350323e-05
4.828419447716e-05
3.817762832883e-05
3.158404092165e-05
2.731723847041e-05
2.457836436608e-05
2.283432481039e-05
2.173257970744e-05
2.104206633331e-05
2.061267358813e-05
2.034772947270e-05
2.018551262779e-05
2.008695172798e-05
2.002752177602e-05
1.999195679393e-05
1.997083256083e-05
1.995837867957e-05
1.995109052062e-05
1.994685658240e-05
1.994441479254e-05
1.994301671358e-05
1.994222200156e-05
1.994177372765e-05
1.994152386458e-05
1.994139119114e-05
1.994134728170e-05
SCALARS 4-H double 1
LOOKUP_TABLE default
2.701109245634e-04
3.483540903732e-04
5.419426030881e-04
9.679422452535e-04
1.771554718430e-03
3.168770086903e-03
5.498532109558e-03
9.279246703731e-03
1.529015940638e-02
2.467928106897e-02
3.896360654435e-02
5.949565216621e-02
8.671043866931e-02
1.219946038970e-01
1.737312817016e-01
1.729009844464e-01
1.718511879547e-01
1.705401424375e-01
1.689340547910e-01
1.669996255625e-01
1.647229257386e-01
1.621013307358e-01
1.591371662220e-01
1.558727204335e-01
1.523235366646e-01
1.485992571217e-01
1.447304559562e-01
1.408696152169e-01
1.370586433395e-01
1.334547422766e-01
1.298692321412e-01
1.271039184000e-01
1.272298904893e-01
1.301020509924e-01
1.324033187963e-01
1.347856037654e-01
1.372221307929e-01
1.396971982658e-01
1.421791295598e-01
1.446233273638e-01
1.470536039485e-01
1.493672436012e-01
1.515549288038e-01
1.536316859844e-01
1.555077414972e-01
1.572198003961e-01
1.587367343978e-01
1.600633913418e-01
1.612084744604e-01
1.621917773029e-01
1.629974878957e-01
1.636693118403e-01
1.642147196947e-01
1.646457910733e-01
1.649898336331e-01
1.652662772453e-01
1.654833389759e-01
1.656505270402e-01
1.657641673812e-01
1.658671454936e-01
1.659304607138e-01
1.659747059156e-01
1.660167954628e-01
1.660293151796e-01
1.660628514946e-01
1.660678768968e-01
1.660724764010e-01
1.661009531631e-01
1.661066674316e-01
1.660834938684e-01
1.661063948728e-01
1.661062689545e-01
1.661107574557e-01
1.660966935615e-01
1.660909046117e-01
1.661011865105e-01
1.660940154904e-01
1.661029411431e-01
1.660980870082e-01
1.661100391592e-01
1.661068447703e-01
1.660913760239e-01
1.660899013315e-01
1.661075580555e-01
1.661020265715e-01
1.661071638707e-01
1.661133649153e-01
1.661130127769e-01
1.660988423932e-01
1.660947067568e-01
1.660985432957e-01
1.660940741901e-01
1.661025681134e-01
1.660964953163e-01
1.660942721676e-01
1.661088855435e-01
1.661020384480e-01
1.661108010817e-01
1.660984498380e-01
1.660957944781e-01
1.661108058099e-01
SCALARS 5-Mg double 1
LOOKUP_TABLE default
1.994071672227e+00
1.994048634929e+00
1.994007437776e+00
1.993941635807e+00
1.993846408075e+00
1.993722968758e+00
1.993586954305e+00
1.993484338284e+00
1.993523933624e+00
1.993940640243e+00
1.995169987081e+00
1.997804945793e+00
2.002414630176e+00
2.010297563904e+00
2.027420607462e+00
2.014202507238e+00
1.997519419147e+00
1.976757310520e+00
1.951275085901e+00
1.920415743471e+00
1.883535113081e+00
1.840017471561e+00
1.789292829956e+00
1.730872250746e+00
1.664353701113e+00
1.589449434918e+00
1.505953090269e+00
1.413815326729e+00
1.313211989965e+00
1.204168357863e+00
1.084081979888e+00
9.594453458389e-01
8.630521158003e-01
8.020081187597e-01
7.368092821231e-01
6.720525424953e-01
6.084005602377e-01
5.465909957071e-01
4.872662235874e-01
4.309676589819e-01
3.781338807738e-01
3.290961661678e-01
2.840768392596e-01
2.431920499632e-01
2.064586981456e-01
1.738047278213e-01
1.450818799351e-01
1.200799514919e-01
9.854164175990e-02
8.017715899203e-02
6.467789798396e-02
5.172866239511e-02
4.101807675686e-02
3.224700188749e-02
2.513491583374e-02
1.942434691392e-02
1.488353936305e-02
1.130759385843e-02
8.518358904824e-03
6.363356914426e-03
4.714016795767e-03
3.463458328282e-03
2.524038013608e-03
1.824826305599e-03
1.309145980302e-03
9.322637974359e-04
6.592946282729e-04
4.633496936609e-04
3.239389678722e-04
2.256218726386e-04
1.568894964430e-04
1.092549898879e-04
7.652557252389e-05
5.422894155339e-05
3.916798886168e-05
2.907997896544e-05
2.237919096538e-05
1.796510495263e-05
1.508122441027e-05
1.321242737241e-05
1.201120877600e-05
1.124528873387e-05
1.076081240452e-05
1.045678306534e-05
1.026748851211e-05
1.015054768828e-05
1.007886321625e-05
1.003525782019e-05
1.000893472737e-05
9.993164428633e-06
9.983787206001e-06
9.978252884354e-06
9.975010723062e-06
9.973125297411e-06
9.972036837188e-06
9.971413006002e-06
9.971058055588e-06
9.970857648177e-06
9.970745841763e-06
9.970686426779e-06
9.970666753989e-06
SCALARS 6-O double 1
LOOKUP_TABLE default
2.010568337471e-02
2.035445335164e-02
2.085570161941e-02
2.180402479473e-02
2.349319606536e-02
2.638761001401e-02
3.122661729520e-02
3.918015036285e-02
5.211947841561e-02
7.308754150482e-02
1.067831147531e-01
1.590691929818e-01
2.355370774393e-01
3.469791622561e-01
5.360509131440e-01
5.337739367547e-01
5.309012027419e-01
5.273226757210e-01
5.229650413549e-01
5.177623461005e-01
5.117274893009e-01
5.049186992585e-01
4.974110961195e-01
4.893994544474e-01
4.810837768288e-01
4.728070153270e-01
4.647483784138e-01
4.573614197565e-01
4.509938153244e-01
4.459128134905e-01
4.416315210105e-01
4.405515659674e-01
4.486490300496e-01
4.647705791306e-01
4.789999110445e-01
4.932681234059e-01
5.075206972067e-01
5.215446691010e-01
5.352125114851e-01
5.483746354961e-01
5.609175163817e-01
5.726842407444e-01
5.835779496549e-01
5.935450269364e-01
6.025024283232e-01
6.104529733330e-01
6.174008656641e-01
6.233855882749e-01
6.284821032150e-01
6.328072514084e-01
6.363152294611e-01
6.392221370039e-01
6.415702897242e-01
6.433935616987e-01
6.449041082903e-01
6.460771964275e-01
6.469876361782e-01
6.476706292949e-01
6.481772595656e-01
6.485753377064e-01
6.488608934215e-01
6.490525147473e-01
6.492454196182e-01
6.493624716964e-01
6.494709493824e-01
6.494873192552e-01
6.495249945830e-01
6.495875984636e-01
6.496085303590e-01
6.496089067863e-01
6.496423229004e-01
6.496136943139e-01
6.496408533006e-01
6.496369041224e-01
6.496371977845e-01
6.496160319650e-01
6.496412727535e-01
6.496342033198e-01
6.496263590483e-01
6.496729215863e-01
6.496618701874e-01
6.496343104271e-01
6.496385152902e-01
6.496576244660e-01
6.496595948937e-01
6.496412572675e-01
6.496548105889e-01
6.496709970360e-01
6.496226028755e-01
6.496413335610e-01
6.496324070704e-01
6.496127731493e-01
6.496244958079e-01
6.496471201977e-01
6.496415662602e-01
6.496630950808e-01
6.496087435296e-01
6.496362191583e-01
6.496625269159e-01
6.496286164364e-01
6.496429771132e-01
SCALARS 7-Sn double 1
LOOKUP_TABLE default
0.000000000000e+00
0.000000000000e+00
0.000000000000e+00
0.000000000000e+00
0.000000000000e+00
0.000000000000e+00
0.000000000000e+00
0.000000000000e+00
0.000000000000e+00
0.000000000000e+00
0.000000000000e+00
0.000000000000e+00
0.000000000000e+00
0.000000000000e+00
0.000000000000e+00
0.000000000000e+00
0.000000000000e+00
0.000000000000e+00
0.000000000000e+00
0.000000000000e+00
0.000000000000e+00
0.000000000000e+00
0.000000000000e+00
0.000000000000e+00
0.000000000000e+00
0.000000000000e+00
0.000000000000e+00
0.000000000000e+00
0.000000000000e+00
0.000000000000e+00
0.000000000000e+00
0.000000000000e+00
0.000000000000e+00
0.000000000000e+00
0.000000000000e+00
0.000000000000e+00
0.000000000000e+00
0.000000000000e+00
0.000000000000e+00
0.000000000000e+00
0.000000000000e+00
0.000000000000e+00
0.000000000000e+00
0.000000000000e+00
0.000000000000e+00
0.000000000000e+00
0.000000000000e+00
0.000000000000e+00
0.000000000000e+00
0.000000000000e+00
0.000000000000e+00
0.000000000000e+00
0.000000000000e+00
0.000000000000e+00
0.000000000000e+00
0.000000000000e+00
0.000000000000e+00
0.000000000000e+00
0.000000000000e+00
0.000000000000e+00
0.000000000000e+00
0.000000000000e+00
0.000000000000e+00
0.000000000000e+00
0.000000000000e+00
0.000000000000e+00
0.000000000000e+00
0.000000000000e+00
0.000000000000e+00
0.000000000000e+00
0.000000000000e+00
0.000000000000e+00
0.000000000000e+00
0.000000000000e+00
0.000000000000e+00
0.000000000000e+00
0.000000000000e+00
0.000000000000e+00
0.000000000000e+00
0.000000000000e+00
0.000000000000e+00
0.000000000000e+00
0.000000000000e+00
0.000000000000e+00
0.000000000000e+00
0.000000000000e+00
0.000000000000e+00
0.000000000000e+00
0.000000000000e+00
0.000000000000e+00
0.000000000000e+00
0.000000000000e+00
0.000000000000e+00
0.000000000000e+00
0.000000000000e+00
0.000000000000e+00
0.000000000000e+00
0.000000000000e+00
0.000000000000e+00
0.000000000000e+00
0.000000000000e+00
SCALARS 8-Zz double 1
LOOKUP_TABLE default
1.035722930241e-15
-1.358238226622e-15
-7.102666301084e-15
5.299660913914e-15
-2.721248134406e-15
8.687055438399e-16
1.575963075538e-15
-2.456404584425e-17
-8.883268784421e-16
-3.261210122031e-16
1.108692167655e-16
3.885974495332e-17
3.687483104926e-16
-7.208551902629e-16
-4.688293087260e-17
4.241386382892e-17
2.254365234177e-16
-1.918944790040e-16
4.789110070266e-16
4.703028928247e-16
-5.936795433077e-16
-3.738529663356e-16
-7.096239087422e-16
1.213142958419e-16
-7.489809127542e-16
3.976387206543e-16
7.269408898266e-17
2.510227850135e-16
5.894963903611e-16
-1.124187468512e-16
1.356125662117e-17
-3.627972140043e-16
1.451013186765e-16
-1.378268077298e-18
1.602100974035e-16
-4.522063645668e-16
5.959194754080e-16
1.020563837318e-19
-4.691306465824e-17
-8.746511303102e-17
1.711057397393e-16
6.952129467606e-17
1.982320453473e-17
-1.628583129444e-16
-1.519888886855e-16
-2.432159129905e-16
-6.695716497094e-17
9.757250991416e-17
1.433656021339e-17
-4.471348834318e-17
2.152237438262e-17
2.293583310031e-19
3.601853079029e-17
3.326462056463e-17
1.463618146990e-17
1.143548091554e-17
-6.993167603096e-18
-2.749877833014e-18
-2.009675728932e-17
-1.820151237102e-18
-2.910442397804e-18
5.333994658207e-18
-1.814262061350e-17
4.697576288497e-18
-2.839830742234e-17
1.390126238439e-17
-3.367411542981e-18
2.572191375798e-18
4.992677943282e-17
-9.046478328942e-18
-1.219949195536e-17
6.737720158464e-18
1.221664449155e-17
2.298618409011e-17
-1.616352962903e-17
-2.835564843837e-17
-3.980165971238e-17
3.766649499483e-17
-2.004965283392e-18
-2.874221441085e-19
1.240481544615e-17
-1.053086170352e-17
-2.924158200404e-17
-1.105389608434e-18
4.105207085384e-17
-2.520412166904e-18
1.798492219286e-17
4.412033409427e-17
-1.282306517247e-17
1.398199673307e-17
1.980721942574e-17
2.653220173680e-17
1.630661972442e-18
-2.970547965188e-17
-6.593081707052e-18
3.283212853143e-17
9.445981380397e-18
-1.874612887262e-18
2.164536605894e-17
-1.502731460392e-18
-2.297861163800e-17
SCALARS C double 1
LOOKUP_TABLE default
 3.190559220786e-06
 2.507380901483e-05
 6.731824215744e-05
 1.441975010718e-04
 2.789607447235e-04
 5.091469457452e-04
 8.948945825956e-04
 1.532486087522e-03
 2.578842960335e-03
 4.295892172878e-03
 7.102153877070e-03
 1.154871408223e-02
 1.820619138431e-02
 2.814880318883e-02
 8.483432971155e-02
 1.165098796566e-01
 1.208936575874e-01
 1.210502631938e-01
 1.205004479049e-01
 1.197001363271e-01
 1.187238512883e-01
 1.176539187125e-01
 1.163951971369e-01
 1.150464811017e-01
 1.135409281274e-01
 1.119651709134e-01
 1.103448208394e-01
 1.086711796179e-01
 1.070641996519e-01
 1.055275994869e-01
 1.039554918155e-01
 1.026439629541e-01
 1.006753104075e-01
 1.010518892858e-01
 1.016572487280e-01
 1.021947535042e-01
 1.027540178062e-01
 1.032455986136e-01
 1.038083042392e-01
 1.043308335526e-01
 1.048099634954e-01
 1.053430721559e-01
 1.057825701150e-01
 1.062694766452e-01
 1.066079776750e-01
 1.069427794726e-01
 1.073134167000e-01
 1.075731245936e-01
 1.077437228977e-01
 1.079797549223e-01
 1.080949914450e-01
 1.082634153335e-01
 1.083630151552e-01
 1.083848156292e-01
 1.084631565901e-01
 1.085391265540e-01
 1.085870543686e-01
 1.085575005847e-01
 1.085964050380e-01
 1.086451356409e-01
 1.085853650361e-01
 1.086338209543e-01
 1.086522935695e-01
 1.085987364563e-01
 1.086215952522e-01
 1.086994511706e-01
 1.086014833120e-01
 1.086222388204e-01
 1.086362913469e-01
 1.086810220701e-01
 1.085879646332e-01
 1.086319131664e-01
 1.086696159400e-01
 1.086329323388e-01
 1.086793083940e-01
 1.085927949876e-01
 1.086871445458e-01
 1.086127318653e-01
 1.086399262865e-01
 1.085965551927e-01
 1.086425640351e-01
 1.086583533746e-01
 1.086547370878e-01
 1.086213394435e-01
 1.086614458077e-01
 1.086476199410e-01
 1.086038046583e-01
 1.086682039615e-01
 1.086419173179e-01
 1.086230969310e-01
 1.086353768691e-01
 1.086455770769e-01
 1.086365614333e-01
 1.086716250670e-01
 1.086131960702e-01
 1.086483981369e-01
 1.085982980460e-01
 1.086810597439e-01
 1.086038365859e-01
 1.087027682546e-01
 1.085429642167e-01
SCALARS Ca double 1
LOOKUP_TABLE default
 3.190559220786e-06
 1.646637591460e-05
 4.197304322578e-05
 8.805015591948e-05
 1.680668332925e-04
 3.032659640899e-04
 5.271509484317e-04
 8.925389439964e-04
 1.484141389091e-03
 2.441132837648e-03
 3.983381241753e-03
 6.399916715539e-03
 9.992935512661e-03
 1.532038134095e-02
 4.413648385300e-02
 6.059522383166e-02
 6.359175890917e-02
 6.470059044647e-02
 6.573095045206e-02
 6.696677358016e-02
 6.850884375426e-02
 7.046981755320e-02
 7.288202771734e-02
 7.588365707694e-02
 7.953942615586e-02
 8.400114605813e-02
 8.940340825177e-02
 9.587301945564e-02
 1.035747085201e-01
 1.127020768920e-01
 1.242454973815e-01
 1.366487329421e-01
 1.682918004251e-01
 1.673250494917e-01
 1.615524987015e-01
 1.559223301309e-01
 1.506052224723e-01
 1.455450078888e-01
 1.409126127483e-01
 1.366234265450e-01
 1.326919925986e-01
 1.292239353272e-01
 1.260709104749e-01
 1.233651149108e-01
 1.208950150651e-01
 1.187840072965e-01
 1.170460892120e-01
 1.155060719824e-01
 1.141557187867e-01
 1.131190054562e-01
 1.121795801868e-01
 1.114825204877e-01
 1.108787138150e-01
 1.103342962989e-01
 1.099611782126e-01
 1.096805838196e-01
 1.094495337676e-01
 1.092037374630e-01
 1.090765765113e-01
 1.089989467099e-01
 1.088439044786e-01
 1.088211794414e-01
 1.087869486825e-01
 1.086947180139e-01
 1.086894501966e-01
 1.087470304600e-01
 1.086345744558e-01
 1.086450673617e-01
 1.086519132100e-01
 1.086916266139e-01
 1.085951058516e-01
 1.086366839624e-01
 1.086727779629e-01
 1.086350116171e-01
 1.086806649936e-01
 1.085936732022e-01
 1.086877086743e-01
 1.086130914513e-01
 1.086401537406e-01
 1.085966979737e-01
 1.086426529864e-01
 1.086584083741e-01
 1.086547708405e-01
 1.086213600035e-01
 1.086614582391e-01
 1.086476274024e-01
 1.086038091041e-01
 1.086682065913e-01
 1.086419188622e-01
 1.086230978315e-01
 1.086353773904e-01
 1.086455773766e-01
 1.086365616043e-01
 1.086716251639e-01
 1.086131961248e-01
 1.086483981674e-01
 1.085982980629e-01
 1.086810597532e-01
 1.086038365911e-01
 1.087027682575e-01
 1.085429642189e-01
SCALARS Cl double 1
LOOKUP_TABLE default
 1.276223688314e+00
 1.276180832064e+00
 1.276120990212e+00
 1.276017272431e+00
 1.275846833219e+00
 1.275577857487e+00
 1.275167082460e+00
 1.274557000832e+00
 1.273672833132e+00
 1.272419411286e+00
 1.270678170929e+00
 1.268304504186e+00
 1.265125801180e+00
 1.260940574172e+00
 1.255513968612e+00
 1.248594613990e+00
 1.239906885998e+00
 1.229153220396e+00
 1.216031134173e+00
 1.200241774450e+00
 1.181502036171e+00
 1.159558288511e+00
 1.134200814928e+00
 1.105278011177e+00
 1.072709569776e+00
 1.036497551906e+00
 9.967345827484e-01
 9.536083390369e-01
 9.074017648258e-01
 8.584887926867e-01
 8.073255253459e-01
 7.544372924574e-01
 7.004013584446e-01
 6.458301530381e-01
 5.913471864609e-01
 5.375676391362e-01
 4.850777366302e-01
 4.344161338534e-01
 3.860581795758e-01
 3.404037641072e-01
 2.977691094896e-01
 2.583827224800e-01
 2.223853842836e-01
 1.898337826906e-01
 1.607072982928e-01
 1.349171929001e-01
 1.123175067847e-01
 9.271686405770e-02
 7.589047907770e-02
 6.159174960603e-02
 4.956292489877e-02
 3.954446825827e-02
 3.128289825751e-02
 2.453698905710e-02
 1.908234765329e-02
 1.471446426604e-02
 1.125039923283e-02
 8.529315060901e-03
 6.412078495030e-03
 4.780159975373e-03
 3.534041814418e-03
 2.591324547501e-03
 1.884690357337e-03
 1.359848924174e-03
 9.735611430291e-04
 6.918058560307e-04
 4.881297561390e-04
 3.422001173298e-04
 2.385641276875e-04
 1.656067106934e-04
 1.146914544670e-04
 7.946460398195e-05
 5.530028502361e-05
 3.886498907997e-05
 2.778064701203e-05
 2.036756755568e-05
 1.545090204182e-05
 1.221680939000e-05
 1.010686685784e-05
 8.741493666008e-06
 7.865056180309e-06
 7.306964956128e-06
 6.954407442435e-06
 6.733443763468e-06
 6.596038411220e-06
 6.511256523267e-06
 6.459347301185e-06
 6.427807848498e-06
 6.408790329479e-06
 6.397409580291e-06
 6.390649833322e-06
 6.386664592776e-06
 6.384332395198e-06
 6.382977514669e-06
 6.382196186638e-06
 6.381748777718e-06
 6.381494503432e-06
 6.381350997011e-06
 6.381271100464e-06
 6.381228569650e-06
 6.381214636902e-06
SCALARS H double 1
LOOKUP_TABLE default
 3.542055048139e+04
 3.542024805493e+04
 3.542024811180e+04
 3.542024823529e+04
 3.542024846335e+04
 3.542024885203e+04
 3.542024949110e+04
 3.542025052538e+04
 3.542025219803e+04
 3.542025492389e+04
 3.542025941929e+04
 3.542026675989e+04
 3.542027825765e+04
 3.542029621513e+04
 3.542018814987e+04
 3.542007788089e+04
 3.542006552386e+04
 3.542006898508e+04
 3.542007583767e+04
 3.542008457597e+04
 3.542009508080e+04
 3.542010720786e+04
 3.542012142518e+04
 3.542013752913e+04
 3.542015587885e+04
 3.542017628209e+04
 3.542019864567e+04
 3.542022306009e+04
 3.542024909690e+04
 3.542027657118e+04
 3.542030501739e+04
 3.542033486616e+04
 3.542034534251e+04
 3.542037937778e+04
 3.542041772278e+04
 3.542045595488e+04
 3.542049332574e+04
 3.542052976142e+04
 3.542056434518e+04
 3.542059721453e+04
 3.542062811054e+04
 3.542065642822e+04
 3.542068261993e+04
 3.542070602594e+04
 3.542072742667e+04
 3.542074626172e+04
 3.542076246094e+04
 3.542077675428e+04
 3.542078922640e+04
 3.542079945835e+04
 3.542080833564e+04
 3.542081542931e+04
 3.542082141385e+04