# vtk DataFile Version 3.0
Unstructured Grid from OpenGeoSys
ASCII
DATASET UNSTRUCTURED_GRID
FIELD TimesAndCycles 2
TIME 1 1 double
1.900000000000e+04
CYLCE 1 1 long
190
POINTS 101 double
0.000000000000e+00 0.000000000000e+00 0.000000000000e+00
5.000000000000e-03 0.000000000000e+00 0.000000000000e+00
1.000000000000e-02 0.000000000000e+00 0.000000000000e+00
1.500000000000e-02 0.000000000000e+00 0.000000000000e+00
2.000000000000e-02 0.000000000000e+00 0.000000000000e+00
2.500000000000e-02 0.000000000000e+00 0.000000000000e+00
3.000000000000e-02 0.000000000000e+00 0.000000000000e+00
3.500000000000e-02 0.000000000000e+00 0.000000000000e+00
4.000000000000e-02 0.000000000000e+00 0.000000000000e+00
4.500000000000e-02 0.000000000000e+00 0.000000000000e+00
5.000000000000e-02 0.000000000000e+00 0.000000000000e+00
5.500000000000e-02 0.000000000000e+00 0.000000000000e+00
6.000000000000e-02 0.000000000000e+00 0.000000000000e+00
6.500000000000e-02 0.000000000000e+00 0.000000000000e+00
7.000000000000e-02 0.000000000000e+00 0.000000000000e+00
7.500000000000e-02 0.000000000000e+00 0.000000000000e+00
8.000000000000e-02 0.000000000000e+00 0.000000000000e+00
8.500000000000e-02 0.000000000000e+00 0.000000000000e+00
9.000000000000e-02 0.000000000000e+00 0.000000000000e+00
9.500000000000e-02 0.000000000000e+00 0.000000000000e+00
1.000000000000e-01 0.000000000000e+00 0.000000000000e+00
1.050000000000e-01 0.000000000000e+00 0.000000000000e+00
1.100000000000e-01 0.000000000000e+00 0.000000000000e+00
1.150000000000e-01 0.000000000000e+00 0.000000000000e+00
1.200000000000e-01 0.000000000000e+00 0.000000000000e+00
1.250000000000e-01 0.000000000000e+00 0.000000000000e+00
1.300000000000e-01 0.000000000000e+00 0.000000000000e+00
1.350000000000e-01 0.000000000000e+00 0.000000000000e+00
1.400000000000e-01 0.000000000000e+00 0.000000000000e+00
1.450000000000e-01 0.000000000000e+00 0.000000000000e+00
1.500000000000e-01 0.000000000000e+00 0.000000000000e+00
1.550000000000e-01 0.000000000000e+00 0.000000000000e+00
1.600000000000e-01 0.000000000000e+00 0.000000000000e+00
1.650000000000e-01 0.000000000000e+00 0.000000000000e+00
1.700000000000e-01 0.000000000000e+00 0.000000000000e+00
1.750000000000e-01 0.000000000000e+00 0.000000000000e+00
1.800000000000e-01 0.000000000000e+00 0.000000000000e+00
1.850000000000e-01 0.000000000000e+00 0.000000000000e+00
1.900000000000e-01 0.000000000000e+00 0.000000000000e+00
1.950000000000e-01 0.000000000000e+00 0.000000000000e+00
2.000000000000e-01 0.000000000000e+00 0.000000000000e+00
2.050000000000e-01 0.000000000000e+00 0.000000000000e+00
2.100000000000e-01 0.000000000000e+00 0.000000000000e+00
2.150000000000e-01 0.000000000000e+00 0.000000000000e+00
2.200000000000e-01 0.000000000000e+00 0.000000000000e+00
2.250000000000e-01 0.000000000000e+00 0.000000000000e+00
2.300000000000e-01 0.000000000000e+00 0.000000000000e+00
2.350000000000e-01 0.000000000000e+00 0.000000000000e+00
2.400000000000e-01 0.000000000000e+00 0.000000000000e+00
2.450000000000e-01 0.000000000000e+00 0.000000000000e+00
2.500000000000e-01 0.000000000000e+00 0.000000000000e+00
2.550000000000e-01 0.000000000000e+00 0.000000000000e+00
2.600000000000e-01 0.000000000000e+00 0.000000000000e+00
2.650000000000e-01 0.000000000000e+00 0.000000000000e+00
2.700000000000e-01 0.000000000000e+00 0.000000000000e+00
2.750000000000e-01 0.000000000000e+00 0.000000000000e+00
2.800000000000e-01 0.000000000000e+00 0.000000000000e+00
2.850000000000e-01 0.000000000000e+00 0.000000000000e+00
2.900000000000e-01 0.000000000000e+00 0.000000000000e+00
2.950000000000e-01 0.000000000000e+00 0.000000000000e+00
3.000000000000e-01 0.000000000000e+00 0.000000000000e+00
3.050000000000e-01 0.000000000000e+00 0.000000000000e+00
3.100000000000e-01 0.000000000000e+00 0.000000000000e+00
3.150000000000e-01 0.000000000000e+00 0.000000000000e+00
3.200000000000e-01 0.000000000000e+00 0.000000000000e+00
3.250000000000e-01 0.000000000000e+00 0.000000000000e+00
3.300000000000e-01 0.000000000000e+00 0.000000000000e+00
3.350000000000e-01 0.000000000000e+00 0.000000000000e+00
3.400000000000e-01 0.000000000000e+00 0.000000000000e+00
3.450000000000e-01 0.000000000000e+00 0.000000000000e+00
3.500000000000e-01 0.000000000000e+00 0.000000000000e+00
3.550000000000e-01 0.000000000000e+00 0.000000000000e+00
3.600000000000e-01 0.000000000000e+00 0.000000000000e+00
3.650000000000e-01 0.000000000000e+00 0.000000000000e+00
3.700000000000e-01 0.000000000000e+00 0.000000000000e+00
3.750000000000e-01 0.000000000000e+00 0.000000000000e+00
3.800000000000e-01 0.000000000000e+00 0.000000000000e+00
3.850000000000e-01 0.000000000000e+00 0.000000000000e+00
3.900000000000e-01 0.000000000000e+00 0.000000000000e+00
3.950000000000e-01 0.000000000000e+00 0.000000000000e+00
4.000000000000e-01 0.000000000000e+00 0.000000000000e+00
4.050000000000e-01 0.000000000000e+00 0.000000000000e+00
4.100000000000e-01 0.000000000000e+00 0.000000000000e+00
4.150000000000e-01 0.000000000000e+00 0.000000000000e+00
4.200000000000e-01 0.000000000000e+00 0.000000000000e+00
4.250000000000e-01 0.000000000000e+00 0.000000000000e+00
4.300000000000e-01 0.000000000000e+00 0.000000000000e+00
4.350000000000e-01 0.000000000000e+00 0.000000000000e+00
4.400000000000e-01 0.000000000000e+00 0.000000000000e+00
4.450000000000e-01 0.000000000000e+00 0.000000000000e+00
4.500000000000e-01 0.000000000000e+00 0.000000000000e+00
4.550000000000e-01 0.000000000000e+00 0.000000000000e+00
4.600000000000e-01 0.000000000000e+00 0.000000000000e+00
4.650000000000e-01 0.000000000000e+00 0.000000000000e+00
4.700000000000e-01 0.000000000000e+00 0.000000000000e+00
4.750000000000e-01 0.000000000000e+00 0.000000000000e+00
4.800000000000e-01 0.000000000000e+00 0.000000000000e+00
4.850000000000e-01 0.000000000000e+00 0.000000000000e+00
4.900000000000e-01 0.000000000000e+00 0.000000000000e+00
4.950000000000e-01 0.000000000000e+00 0.000000000000e+00
5.000000000000e-01 0.000000000000e+00 0.000000000000e+00
CELLS 100 300
2 0 1
2 2 3
2 4 5
2 6 7
2 8 9
2 10 11
2 12 13
2 14 15
2 16 17
2 18 19
2 20 21
2 22 23
2 24 25
2 26 27
2 28 29
2 30 31
2 32 33
2 34 35
2 36 37
2 38 39
2 40 41
2 42 43
2 44 45
2 46 47
2 48 49
2 50 51
2 52 53
2 54 55
2 56 57
2 58 59
2 60 61
2 62 63
2 64 65
2 66 67
2 68 69
2 70 71
2 72 73
2 74 75
2 76 77
2 78 79
2 80 81
2 82 83
2 84 85
2 86 87
2 88 89
2 90 91
2 92 93
2 94 95
2 96 97
2 98 99
2 1 2
2 3 4
2 5 6
2 7 8
2 9 10
2 11 12
2 13 14
2 15 16
2 17 18
2 19 20
2 21 22
2 23 24
2 25 26
2 27 28
2 29 30
2 31 32
2 33 34
2 35 36
2 37 38
2 39 40
2 41 42
2 43 44
2 45 46
2 47 48
2 49 50
2 51 52
2 53 54
2 55 56
2 57 58
2 59 60
2 61 62
2 63 64
2 65 66
2 67 68
2 69 70
2 71 72
2 73 74
2 75 76
2 77 78
2 79 80
2 81 82
2 83 84
2 85 86
2 87 88
2 89 90
2 91 92
2 93 94
2 95 96
2 97 98
2 99 100

CELL_TYPES 100
3
3
3
3
3
3
3
3
3
3
3
3
3
3
3
3
3
3
3
3
3
3
3
3
3
3
3
3
3
3
3
3
3
3
3
3
3
3
3
3
3
3
3
3
3
3
3
3
3
3
3
3
3
3
3
3
3
3
3
3
3
3
3
3
3
3
3
3
3
3
3
3
3
3
3
3
3
3
3
3
3
3
3
3
3
3
3
3
3
3
3
3
3
3
3
3
3
3
3
3

POINT_DATA 101
SCALARS 1-C double 1
LOOKUP_TABLE default
9.970358361137e-06
4.435079183507e-05
1.107886741321e-04
2.318760434579e-04
4.445046657908e-04
8.084767461917e-04
1.420299093888e-03
2.435622921850e-03
4.105719135459e-03
6.832972937853e-03
1.124372863946e-02
1.828105166251e-02
2.942538445888e-02
4.753792449954e-02
7.963275097563e-02
1.430226432789e-01
1.424017808158e-01
1.415922298400e-01
1.405643420716e-01
1.393060984201e-01
1.377565957487e-01
1.359153184854e-01
1.337372745909e-01
1.312197839443e-01
1.283811817176e-01
1.252369028274e-01
1.218245685549e-01
1.182042067626e-01
1.144528645857e-01
1.106543975000e-01
1.069001187005e-01
1.032889050867e-01
9.987335832240e-02
9.676260140304e-02
9.455251352604e-02
9.323489983329e-02
9.541457710549e-02
9.716379789329e-02
9.881982901306e-02
1.005492553615e-01
1.023128343940e-01
1.041014655693e-01
1.058819355564e-01
1.076364550934e-01
1.093508242498e-01
1.109766693995e-01
1.125185849582e-01
1.139494764734e-01
1.152615031161e-01
1.164390336195e-01
1.174764248238e-01
1.183854652908e-01
1.191597191486e-01
1.198144843391e-01
1.203728166884e-01
1.208023755838e-01
1.211659287128e-01
1.214616358461e-01
1.216860591550e-01
1.218528067269e-01
1.219904799915e-01
1.221041497507e-01
1.221869002283e-01
1.222428436078e-01
1.222800644681e-01
1.223151149204e-01
1.223268991074e-01
1.223486688754e-01
1.223655462590e-01
1.223755763118e-01
1.223806834995e-01
1.223810034200e-01
1.223903257350e-01
1.223873136036e-01
1.223971496701e-01
1.223825580911e-01
1.223875708220e-01
1.223954550329e-01
1.223882581943e-01
1.223881951845e-01
1.223991014931e-01
1.223935710886e-01
1.223933879696e-01
1.223921523474e-01
1.223932515045e-01
1.223923486123e-01
1.223964628780e-01
1.223943452284e-01
1.224019777123e-01
1.223929809810e-01
1.223943206297e-01
1.223939903042e-01
1.223971031447e-01
1.223927232008e-01
1.223960367188e-01
1.223910316718e-01
1.223853839361e-01
1.223959765819e-01
1.223940369460e-01
1.223942982878e-01
1.223903662960e-01
SCALARS 2-Ca double 1
LOOKUP_TABLE default
9.970358361137e-06
3.035006222299e-05
6.957464967161e-05
1.406206977704e-04
2.643987716860e-04
4.743485585198e-04
8.237058297520e-04
1.397185519789e-03
2.329788495027e-03
3.835235098458e-03
6.243199576232e-03
1.004663398194e-02
1.601317049566e-02
2.560801156386e-02
4.238131090486e-02
7.504250127265e-02
7.600314563705e-02
7.725173270548e-02
7.886546722820e-02
8.094653977242e-02
8.359046276867e-02
8.694228545617e-02
9.114573384077e-02
9.638819360971e-02
1.028917140869e-01
1.109028228959e-01
1.207069725618e-01
1.326309075342e-01
1.470439149974e-01
1.643558102666e-01
1.849960746618e-01
2.094302824272e-01
2.385977577902e-01
2.733138861255e-01
3.079074354150e-01
3.406271571998e-01
3.193696641862e-01
3.011978319287e-01
2.842914697682e-01
2.679286495768e-01
2.523467990558e-01
2.376719113977e-01
2.239713721843e-01
2.113050772783e-01
1.997120084878e-01
1.891722055002e-01
1.796952174178e-01
1.712376269018e-01
1.637567180032e-01
1.571865035254e-01
1.514587443942e-01
1.465136406294e-01
1.422672888713e-01
1.386545072501e-01
1.356173942558e-01
1.330443220890e-01
1.309221750330e-01
1.291779508660e-01
1.277426924980e-01
1.265706920067e-01
1.256376846537e-01
1.249023104370e-01
1.243174374051e-01
1.238528023293e-01
1.234874769769e-01
1.232138235697e-01
1.229908138457e-01
1.228354619540e-01
1.227198081361e-01
1.226314715823e-01
1.225641548988e-01
1.225115765334e-01
1.224825679905e-01
1.224519993795e-01
1.224421797556e-01
1.224136770186e-01
1.224089203105e-01
1.224099963849e-01
1.223980912915e-01
1.223947969205e-01
1.224035022012e-01
1.223964838043e-01
1.223953022234e-01
1.223934015756e-01
1.223940610477e-01
1.223928695785e-01
1.223967958179e-01
1.223945565405e-01
1.224021109114e-01
1.223930643705e-01
1.223943724825e-01
1.223940223298e-01
1.223971227921e-01
1.223927351741e-01
1.223960439671e-01
1.223910360309e-01
1.223853865407e-01
1.223959781294e-01
1.223940378650e-01
1.223942988538e-01
1.223903667413e-01
SCALARS 3-Cl double 1
LOOKUP_TABLE default
3.988143344455e+00
3.988100329774e+00
3.988019553215e+00
3.987878905518e+00
3.987646371744e+00
3.987276664420e+00
3.986707099118e+00
3.985852677778e+00
3.984600394271e+00
3.982802846933e+00
3.980271326596e+00
3.976768655426e+00
3.972002172809e+00
3.965617401474e+00
3.957193004197e+00
3.946237582308e+00
3.932185212164e+00
3.914407239699e+00
3.892211420120e+00
3.864855491395e+00
3.831563320682e+00
3.791545910861e+00
3.744026932654e+00
3.688272121469e+00
3.623621463039e+00
3.549522761763e+00
3.465564892924e+00
3.371508843712e+00
3.267314570742e+00
3.153161803757e+00
3.029463107371e+00
2.896867906244e+00
2.756256665850e+00
2.608725048595e+00
2.455558267532e+00
2.298196497957e+00
2.138194662282e+00
1.977174198772e+00
1.816774615805e+00
1.658603843701e+00
1.504190783645e+00
1.354942392421e+00
1.212107148604e+00
1.076746405136e+00
9.497145657711e-01
8.316484650179e-01
7.229657823660e-01
6.238718215439e-01
5.343735863691e-01
4.542997734657e-01
3.833251327895e-01
3.209975791295e-01
2.667664896686e-01
2.200107639393e-01
1.800654303393e-01
1.462458392914e-01
1.178687598930e-01
9.426996453658e-02
7.481814322196e-02
5.892520159165e-02
4.605317448434e-02
3.571811216822e-02
2.749137904801e-02
2.099884343605e-02
1.591844026790e-02
1.197656359687e-02
8.943700244526e-03
6.629657474535e-03
4.878673132023e-03
3.564632043823e-03
2.586551238767e-03
1.864442179676e-03
1.335612123256e-03
9.514295824920e-04
6.745505896651e-04
4.765821878553e-04
3.361464317106e-04
2.373007267722e-04
1.682674645808e-04
1.204263209536e-04
8.752531189059e-05
6.507082072409e-05
4.986165987947e-05
3.963728184690e-05
3.281515783591e-05
2.829686136102e-05
2.532640309886e-05
2.338780893150e-05
2.213181935057e-05
2.132394887680e-05
2.080803796293e-05
2.048091906225e-05
2.027497230858e-05
2.014622357235e-05
2.006629742969e-05
2.001702482499e-05
1.998686280091e-05
1.996854371852e-05
1.995757033216e-05
1.995136578890e-05
1.994923663872e-05
SCALARS 4-H double 1
LOOKUP_TABLE default
2.701109245634e-04
3.089279589638e-04
3.907776954284e-04
5.775001288128e-04
9.566022947965e-04
1.649298511533e-03
2.836844474037e-03
4.804027122304e-03
7.992845387786e-03
1.306362249445e-02
2.092908274420e-02
3.273590767829e-02
4.993238454024e-02
7.491216739557e-02
1.130369626665e-01
1.745279558325e-01
1.739829805924e-01
1.732715842803e-01
1.723649203198e-01
1.712504422824e-01
1.698704255512e-01
1.682201288600e-01
1.662530958216e-01
1.639591742005e-01
1.613455754825e-01
1.584165301502e-01
1.552045215143e-01
1.517106286125e-01
1.480575754646e-01
1.442864973097e-01
1.404854578038e-01
1.367381326681e-01
1.330754112878e-01
1.296391668668e-01
1.270746914735e-01
1.254319094015e-01
1.281046685999e-01
1.303060719732e-01
1.324481702994e-01
1.346773476547e-01
1.369880607756e-01
1.393149782092e-01
1.416737696748e-01
1.440228860397e-01
1.463279404414e-01
1.485551744028e-01
1.506838927981e-01
1.527017380464e-01
1.545663106448e-01
1.562856142853e-01
1.578242508460e-01
1.592016030361e-01
1.604046297800e-01
1.614463112810e-01
1.623477186308e-01
1.630807790646e-01
1.637135564889e-01
1.642107431845e-01
1.646467371438e-01
1.649643508014e-01
1.652343959204e-01
1.654498160192e-01
1.656110253639e-01
1.657395062199e-01
1.658350797296e-01
1.659110108318e-01
1.659550362289e-01
1.659839658059e-01
1.660188609425e-01
1.660501511117e-01
1.660518177655e-01
1.660843061952e-01
1.660921450047e-01
1.660765525516e-01
1.660946208607e-01
1.660960415864e-01
1.660885437272e-01
1.661124206877e-01
1.660958302698e-01
1.661003957628e-01
1.661063367824e-01
1.660892477090e-01
1.661116860249e-01
1.661100516532e-01
1.661034075679e-01
1.660926573850e-01
1.660918074076e-01
1.660938710695e-01
1.661083791373e-01
1.661027917068e-01
1.660916159085e-01
1.661088334943e-01
1.661069291902e-01
1.661081037122e-01
1.661162341506e-01
1.661082107514e-01
1.661041586602e-01
1.661126443327e-01
1.661037717969e-01
1.661150047808e-01
1.661025662160e-01
SCALARS 5-Mg double 1
LOOKUP_TABLE default
1.994071672227e+00
1.994064165616e+00
1.994050990632e+00
1.994030708105e+00
1.994003291766e+00
1.993972460398e+00
1.993950142823e+00
1.993964776291e+00
1.994076127776e+00
1.994399161306e+00
1.995136192361e+00
1.996618745394e+00
1.999413300368e+00
2.004738613673e+00
2.015847942169e+00
2.041098933160e+00
2.032491241261e+00
2.021544116984e+00
2.007804584904e+00
1.990787304345e+00
1.969947793321e+00
1.944745988460e+00
1.914605007077e+00
1.878967651069e+00
1.837300199150e+00
1.789095460813e+00
1.733900042455e+00
1.671327721084e+00
1.601066234959e+00
1.522879489112e+00
1.436635597724e+00
1.342292575782e+00
1.239403933457e+00
1.127811239575e+00
1.014424211877e+00
9.017059916117e-01
8.451422440605e-01
7.845530653508e-01
7.229156671476e-01
6.619225276352e-01
6.020614271605e-01
5.439007503819e-01
4.879641376743e-01
4.347045803831e-01
3.844960986475e-01
3.376286964082e-01
2.943062587234e-01
2.546477603436e-01
2.186915782974e-01
1.864024168268e-01
1.576802468243e-01
1.323706142260e-01
1.102756751115e-01
9.116535905859e-02
7.478813760216e-02
6.088097314044e-02
4.917813362619e-02
3.941866724837e-02
3.135243826786e-02
2.474471551598e-02
1.937938257986e-02
1.506089539764e-02
1.161515234713e-02
8.889462996458e-03
6.751807624969e-03
5.089573149050e-03
3.807935383860e-03
2.828035658591e-03
2.085074688859e-03
1.526420751344e-03
1.109804220068e-03
8.016479764878e-04
5.755638060313e-04
4.110290153274e-04
2.922452093266e-04
2.071721663216e-04
1.467237273494e-04
1.041090113099e-04
7.430063502982e-05
5.361142440461e-05
3.936194781421e-05
2.962269463309e-05
2.301657611678e-05
1.856941269450e-05
1.559803569980e-05
1.362746444924e-05
1.233026164933e-05
1.148259232993e-05
1.093271064433e-05
1.057858490610e-05
1.035216623413e-05
1.020843389484e-05
1.011783873051e-05
1.006113854987e-05
1.002590047470e-05
1.000415337362e-05
9.990826775030e-06
9.982724372451e-06
9.977866129063e-06
9.975116891614e-06
9.974173020905e-06
SCALARS 6-O double 1
LOOKUP_TABLE default
2.010568337471e-02
2.023016864149e-02
2.047404185451e-02
2.093699389549e-02
2.177489424667e-02
2.322979458359e-02
2.568466387031e-02
2.975267407285e-02
3.641372248622e-02
4.721175930738e-02
6.449067118520e-02
9.166366773614e-02
1.339093891548e-01
2.010242090126e-01
3.167501897210e-01
5.381583972399e-01
5.366555942691e-01
5.346711522648e-01
5.321328512509e-01
5.290317602303e-01
5.251912315863e-01
5.206428522406e-01
5.152633528496e-01
5.090726601871e-01
5.021590883590e-01
4.945959096255e-01
4.865307345010e-01
4.781549473915e-01
4.697628599332e-01
4.616185254528e-01
4.540213573690e-01
4.472806071611e-01
4.415299094760e-01
4.371182737282e-01
4.360981565665e-01
4.384051132462e-01
4.534806041348e-01
4.670749633286e-01
4.803322368265e-01
4.937530140119e-01
5.071479907190e-01
5.203938807034e-01
5.333426896140e-01
5.458725052144e-01
5.578850758462e-01
5.691897332987e-01
5.797711068490e-01
5.895324851019e-01
5.984288208431e-01
6.064249218096e-01
6.135007879255e-01
6.197218137106e-01
6.250869440662e-01
6.296765087956e-01
6.336001326424e-01
6.367775655773e-01
6.394618882978e-01
6.416598175582e-01
6.434266497696e-01
6.448010819905e-01
6.459285358170e-01
6.468424759507e-01
6.475416540601e-01
6.480659866605e-01
6.484541339457e-01
6.487746997800e-01
6.489685952898e-01
6.491525420607e-01
6.492994480609e-01
6.494043399980e-01
6.494645276174e-01
6.495142410724e-01
6.495699358158e-01
6.495703995765e-01
6.496214076780e-01
6.495872562742e-01
6.496048684740e-01
6.496449100539e-01
6.496181325400e-01
6.496223803275e-01
6.496595512471e-01
6.496354265080e-01
6.496467811072e-01
6.496427174268e-01
6.496430001037e-01
6.496351197800e-01
6.496471714392e-01
6.496419375569e-01
6.496721456028e-01
6.496423980224e-01
6.496408523376e-01
6.496484848580e-01
6.496568805592e-01
6.496443337415e-01
6.496583431536e-01
6.496393184919e-01
6.496203505428e-01
6.496563721886e-01
6.496461175097e-01
6.496525183146e-01
6.496345030909e-01
SCALARS 7-Sn double 1
LOOKUP_TABLE default
0.000000000000e+00
0.000000000000e+00
0.000000000000e+00
0.000000000000e+00
0.000000000000e+00
0.000000000000e+00
0.000000000000e+00
0.000000000000e+00
0.000000000000e+00
0.000000000000e+00
0.000000000000e+00
0.000000000000e+00
0.000000000000e+00
0.000000000000e+00
0.000000000000e+00
0.000000000000e+00
0.000000000000e+00
0.000000000000e+00
0.000000000000e+00
0.000000000000e+00
0.000000000000e+00
0.000000000000e+00
0.000000000000e+00
0.000000000000e+00
0.000000000000e+00
0.000000000000e+00
0.000000000000e+00
0.000000000000e+00
0.000000000000e+00
0.000000000000e+00
0.000000000000e+00
0.000000000000e+00
0.000000000000e+00
0.000000000000e+00
0.000000000000e+00
0.000000000000e+00
0.000000000000e+00
0.000000000000e+00
0.000000000000e+00
0.000000000000e+00
0.000000000000e+00
0.000000000000e+00
0.000000000000e+00
0.000000000000e+00
0.000000000000e+00
0.000000000000e+00
0.000000000000e+00
0.000000000000e+00
0.000000000000e+00
0.000000000000e+00
0.000000000000e+00
0.000000000000e+00
0.000000000000e+00
0.000000000000e+00
0.000000000000e+00
0.000000000000e+00
0.000000000000e+00
0.000000000000e+00
0.000000000000e+00
0.000000000000e+00
0.000000000000e+00
0.000000000000e+00
0.000000000000e+00
0.000000000000e+00
0.000000000000e+00
0.000000000000e+00
0.000000000000e+00
0.000000000000e+00
0.000000000000e+00
0.000000000000e+00
0.000000000000e+00
0.000000000000e+00
0.000000000000e+00
0.000000000000e+00
0.000000000000e+00
0.000000000000e+00
0.000000000000e+00
0.000000000000e+00
0.000000000000e+00
0.000000000000e+00
0.000000000000e+00
0.000000000000e+00
0.000000000000e+00
0.000000000000e+00
0.000000000000e+00
0.000000000000e+00
0.000000000000e+00
0.000000000000e+00
0.000000000000e+00
0.000000000000e+00
0.000000000000e+00
0.000000000000e+00
0.000000000000e+00
0.000000000000e+00
0.000000000000e+00
0.000000000000e+00
0.000000000000e+00
0.000000000000e+00
0.000000000000e+00
0.000000000000e+00
0.000000000000e+00
SCALARS 8-Zz double 1
LOOKUP_TABLE default
1.035722930241e-15
8.097977251971e-16
-9.152698302375e-15
2.159104042278e-14
-1.816637558019e-15
3.228187919459e-15
-1.420063585922e-15
8.978602489178e-16
1.194264173364e-16
-3.126406380067e-16
9.457862857042e-16
-9.842997420764e-17
4.971267932340e-16
-2.661701056563e-16
8.848338732182e-16
2.016581726905e-16
1.027986261013e-16
-1.392683585084e-17
-2.646826751333e-16
-6.144924348626e-16
5.561017814488e-16
2.005690084231e-16
3.677404159064e-16
4.433792873525e-16
-2.937464875117e-16
5.339995273471e-17
-8.454943440361e-17
-4.468080414054e-16
6.772156020029e-16
2.285822862615e-16
-5.582201295282e-16
-5.790572366143e-16
2.604742793095e-16
7.833267721575e-16
-6.884415069221e-17
-4.710773593879e-16
3.416210691041e-16
-3.352237316925e-17
5.864039059565e-17
5.577856923482e-17
2.406654535064e-16
-2.515416992298e-16
1.620656936044e-16
2.798490623728e-16
2.940740024784e-17
-1.854800582781e-16
6.720934040658e-17
-8.387329793687e-17
1.215898814779e-16
-1.828400158658e-16
2.085628147334e-16
5.154402888249e-17
-3.768037649221e-17
3.800067624353e-17
4.413097906371e-18
-5.834582976779e-17
4.144273408559e-17
1.009005560366e-16
-3.976050562110e-17
-1.599809135947e-17
-1.195089710938e-17
8.095598858497e-18
6.086280210275e-19
-7.065287415917e-18
3.313038823473e-17
9.658616663782e-18
-7.216287037384e-18
1.463066251249e-17
-4.248968748993e-17
5.903926217041e-17
-5.924565782783e-19
4.943427913808e-18
2.591597095103e-17
5.736448461194e-17
-4.409518035318e-17
-3.492722440460e-17
3.846698840764e-18
7.361906437458e-19
-9.536985932209e-18
-1.669611335659e-17
-2.939336342596e-18
6.596745213454e-18
3.149856092867e-17
1.550511489879e-17
-1.532945192665e-17
-3.228282126097e-17
2.966510455696e-17
1.088516150137e-17
-4.953069456435e-18
-2.666522119235e-18
7.559320447771e-18
-2.016430901157e-18
-7.512139742769e-18
-5.964787448668e-18
3.081773619909e-17
-3.225901632245e-17
3.151818102662e-19
-1.822692657301e-17
2.047302214077e-17
-4.890281438439e-17
-6.042762750602e-18
SCALARS C double 1
LOOKUP_TABLE default
 3.190559220786e-06
 1.419233034949e-05
 3.545256797469e-05
 7.420073628281e-05
 1.422422644054e-04
 2.587139617372e-04
 4.544981747002e-04
 7.794035615470e-04
 1.313837248033e-03
 2.186563197423e-03
 3.598012675955e-03
 5.849968255253e-03
 9.416174088935e-03
 1.521221833278e-02
 2.548261849952e-02
 5.200644661833e-02
 1.117745650149e-01
 1.205829622339e-01
 1.215941193274e-01
 1.213176025882e-01
 1.207389718605e-01
 1.200720134023e-01
 1.192397613380e-01
 1.183142538437e-01
 1.172141411221e-01
 1.159955515576e-01
 1.146767661231e-01
 1.132069909584e-01
 1.117008493403e-01
 1.101534940262e-01
 1.085165094552e-01
 1.069179992089e-01
 1.054084563266e-01
 1.039203150089e-01
 1.026807610989e-01
 1.005893114882e-01
 1.005727221079e-01
 1.011318202046e-01
 1.016558003249e-01
 1.021449758813e-01
 1.026074856266e-01
 1.031539828021e-01
 1.036362221555e-01
 1.041919317889e-01
 1.046319254652e-01
 1.050890644601e-01
 1.056099118454e-01
 1.060263116256e-01
 1.063676622596e-01
 1.067739722682e-01
 1.070542758634e-01
 1.073795523551e-01
 1.076239460112e-01
 1.077784247382e-01
 1.079701467587e-01
 1.081513685618e-01
 1.082738744506e-01
 1.083196636312e-01
 1.084063046689e-01
 1.084932639141e-01
 1.084909057129e-01
 1.085517712803e-01
 1.085860425583e-01
 1.085613098792e-01
 1.085821468698e-01
 1.086818544913e-01
 1.085875778452e-01
 1.086111045733e-01
 1.086228630475e-01
 1.086896883601e-01
 1.085774570636e-01
 1.086303987807e-01
 1.086601791522e-01
 1.086312715614e-01
 1.086825463378e-01
 1.085948684263e-01
 1.086813027181e-01
 1.086127850120e-01
 1.086550717427e-01
 1.085850574358e-01
 1.086408854352e-01
 1.086551890794e-01
 1.086586953767e-01
 1.086200647952e-01
 1.086664271128e-01
 1.086414544031e-01
 1.086103845612e-01
 1.086602031511e-01
 1.086518668831e-01
 1.086144119375e-01
 1.086367459150e-01
 1.086490504408e-01
 1.086334863176e-01
 1.086722797192e-01
 1.086170478577e-01
 1.086440109645e-01
 1.085954859269e-01
 1.086959504750e-01
 1.085942382282e-01
 1.087029248924e-01
 1.085362898434e-01
SCALARS Ca double 1
LOOKUP_TABLE default
 3.190559220786e-06
 9.712072578052e-06
 2.226400862834e-05
 4.499886730670e-05
 8.460806575273e-05
 1.517923618670e-04
 2.635872949037e-04
 4.471017908792e-04
 7.455363613083e-04
 1.227281886819e-03
 1.997834698266e-03
 3.214940308221e-03
 5.124242346390e-03
 8.194608138214e-03
 1.356209303417e-02
 2.713320621019e-02
 5.742400227816e-02
 6.235727436605e-02
 6.354370816859e-02
 6.427270996961e-02
 6.507736791736e-02
 6.611107322766e-02
 6.738853394306e-02
 6.900616122565e-02
 7.099140229291e-02
 7.344874042280e-02
 7.647264135892e-02
 8.013266195510e-02
 8.459195790124e-02
 8.996582953140e-02
 9.635289319424e-02
 1.039503637432e-01
 1.130756545842e-01
 1.239384468390e-01
 1.347422022819e-01
 1.671558196822e-01
 1.716985952355e-01
 1.664225373547e-01
 1.610065674726e-01
 1.557062399354e-01
 1.506182275131e-01
 1.458964127040e-01
 1.414247425644e-01
 1.373658037257e-01
 1.335474288101e-01
 1.301115707632e-01
 1.271063781099e-01
 1.243584719892e-01
 1.218860907232e-01
 1.198131287319e-01
 1.179285899138e-01
 1.163805450758e-01
 1.150183491121e-01
 1.138072164454e-01
 1.128483989304e-01
 1.120687812654e-01
 1.113958651594e-01
 1.107888780343e-01
 1.103444223094e-01
 1.100029832802e-01
 1.096580081780e-01
 1.094471803752e-01
 1.092678126842e-01
 1.090764953346e-01
 1.089685178707e-01
 1.089694405103e-01
 1.088000300108e-01
 1.087668779544e-01
 1.087362265540e-01
 1.087715746336e-01
 1.086361677594e-01
 1.086721820685e-01
 1.086896965973e-01
 1.086519709560e-01
 1.086969559277e-01
 1.086048264573e-01
 1.086881345367e-01
 1.086174382326e-01
 1.086582183256e-01
 1.085871699859e-01
 1.086422936581e-01
 1.086561211460e-01
 1.086593079363e-01
 1.086204645472e-01
 1.086666861659e-01
 1.086416211118e-01
 1.086104911017e-01
 1.086602707708e-01
 1.086519095067e-01
 1.086144386221e-01
 1.086367625078e-01
 1.086490606890e-01
 1.086334926048e-01
 1.086722835506e-01
 1.086170501771e-01
 1.086440123594e-01
 1.085954867604e-01
 1.086959509702e-01
 1.085942385223e-01
 1.087029250735e-01
 1.085362899859e-01
SCALARS Cl double 1
LOOKUP_TABLE default
 1.276223688314e+00
 1.276199026108e+00
 1.276173177470e+00
 1.276128169963e+00
 1.276053758751e+00
 1.275935451766e+00
 1.275753189881e+00
 1.275479773570e+00
 1.275079040674e+00
 1.274503822407e+00
 1.273693731506e+00
 1.272572870653e+00
 1.271047587945e+00
 1.269004450038e+00
 1.266308628290e+00
 1.262802081618e+00
 1.258297709976e+00
 1.252607623105e+00
 1.245504808188e+00
 1.236750915307e+00
 1.226097455373e+00
 1.213291923040e+00
 1.198085901017e+00
 1.180244416143e+00
 1.159556274492e+00
 1.135844767396e+00
 1.108978334198e+00
 1.078880498228e+00
 1.045538435098e+00
 1.009009661176e+00
 9.694262038319e-01
 9.269958679033e-01
 8.820003983271e-01
 8.347904150408e-01
 7.857771811557e-01
 7.354211361254e-01
 6.842204820752e-01
 6.326940599826e-01
 5.813663304175e-01
 5.307518219318e-01
 4.813397794584e-01
 4.335804217024e-01
 3.878732681835e-01
 3.445579443387e-01
 3.039078663570e-01
 2.661268148489e-01
 2.313484463564e-01
 1.996384626371e-01
 1.709991035645e-01
 1.453755494831e-01
 1.226637242566e-01
 1.027189584220e-01
 8.536505491914e-02
 7.040326200318e-02
 5.762078829145e-02
 4.679854698301e-02
 3.771790514165e-02
 3.016631042329e-02
 2.394174370342e-02
 1.885601550580e-02
 1.473697761508e-02
 1.142976621876e-02
 8.797218447260e-03
 6.719612480451e-03
 5.093887675721e-03
 3.832490373037e-03
 2.861976659425e-03
 2.121484888477e-03
 1.561171351245e-03
 1.140679285759e-03
 8.276942534653e-04
 5.966199491799e-04
 4.273947689680e-04
 3.044566763280e-04
 2.158556273453e-04
 1.525059049727e-04
 1.075665783904e-04
 7.593603569684e-05
 5.384544879011e-05
 3.853632290965e-05
 2.800802710487e-05
 2.082260854407e-05
 1.595568970926e-05
 1.268389729478e-05
 1.050082321740e-05
 9.054972128783e-06
 8.104427982804e-06
 7.484079413738e-06
 7.082163800867e-06
 6.823645947824e-06
 6.658554866607e-06
 6.553877080682e-06
 6.487974303047e-06
 6.446774784452e-06
 6.421198527007e-06
 6.405431313271e-06
 6.395779525112e-06
 6.389917362340e-06
 6.386405962360e-06
 6.384420433631e-06
 6.383739229198e-06
SCALARS H double 1
LOOKUP_TABLE default
 3.542055048139e+04
 3.542024804195e+04
 3.542024806304e+04
 3.542024811224e+04
 3.542024821177e+04
 3.542024839082e+04
 3.542024869238e+04
 3.542024918514e+04
 3.542024998113e+04
 3.542025126659e+04
 3.542025334466e+04
 3.542025671269e+04
 3.542026221474e+04
 3.542027151761e+04
 3.542028872192e+04
 3.542030222067e+04
 3.542009091588e+04
 3.542006161256e+04
 3.542006057743e+04
 3.542006473225e+04
 3.542007060598e+04
 3.542007758068e+04
 3.542008599367e+04
 3.542009571162e+04
 3.542010716523e+04
 3.542012026458e+04
 3.542013505890e+04
 3.542015185044e+04
 3.542017032078e+04
 3.542019055380e+04
 3.542021274782e+04
 3.542023643649e+04
 3.542026124809e+04
 3.542028730420e+04
 3.542031526487e+04
 3.542032507270e+04
 3.542035218438e+04
 3.542038809267e+04
 3.542042431389e+04
 3.542046036783e+04
 3.542049580151e+04
 3.542052984161e+04
 3.542056275977e+04
 3.542059372614e+04
 3.542062329856e+04
 3.542065069604e+04
 3.542067564006e+04
 3.542069871265e+04
 3.542071976961e+04
 3.542073823623e+04
 3.542075494636e+04
 3.542076931596e+04
 3.542078196180e+04