# vtk DataFile Version 3.0
Unstructured Grid from OpenGeoSys
ASCII
DATASET UNSTRUCTURED_GRID
FIELD TimesAndCycles 2
TIME 1 1 double
1.300000000000e+04
CYLCE 1 1 long
130
POINTS 101 double
0.000000000000e+00 0.000000000000e+00 0.000000000000e+00
5.000000000000e-03 0.000000000000e+00 0.000000000000e+00
1.000000000000e-02 0.000000000000e+00 0.000000000000e+00
1.500000000000e-02 0.000000000000e+00 0.000000000000e+00
2.000000000000e-02 0.000000000000e+00 0.000000000000e+00
2.500000000000e-02 0.000000000000e+00 0.000000000000e+00
3.000000000000e-02 0.000000000000e+00 0.000000000000e+00
3.500000000000e-02 0.000000000000e+00 0.000000000000e+00
4.000000000000e-02 0.000000000000e+00 0.000000000000e+00
4.500000000000e-02 0.000000000000e+00 0.000000000000e+00
5.000000000000e-02 0.000000000000e+00 0.000000000000e+00
5.500000000000e-02 0.000000000000e+00 0.000000000000e+00
6.000000000000e-02 0.000000000000e+00 0.000000000000e+00
6.500000000000e-02 0.000000000000e+00 0.000000000000e+00
7.000000000000e-02 0.000000000000e+00 0.000000000000e+00
7.500000000000e-02 0.000000000000e+00 0.000000000000e+00
8.000000000000e-02 0.000000000000e+00 0.000000000000e+00
8.500000000000e-02 0.000000000000e+00 0.000000000000e+00
9.000000000000e-02 0.000000000000e+00 0.000000000000e+00
9.500000000000e-02 0.000000000000e+00 0.000000000000e+00
1.000000000000e-01 0.000000000000e+00 0.000000000000e+00
1.050000000000e-01 0.000000000000e+00 0.000000000000e+00
1.100000000000e-01 0.000000000000e+00 0.000000000000e+00
1.150000000000e-01 0.000000000000e+00 0.000000000000e+00
1.200000000000e-01 0.000000000000e+00 0.000000000000e+00
1.250000000000e-01 0.000000000000e+00 0.000000000000e+00
1.300000000000e-01 0.000000000000e+00 0.000000000000e+00
1.350000000000e-01 0.000000000000e+00 0.000000000000e+00
1.400000000000e-01 0.000000000000e+00 0.000000000000e+00
1.450000000000e-01 0.000000000000e+00 0.000000000000e+00
1.500000000000e-01 0.000000000000e+00 0.000000000000e+00
1.550000000000e-01 0.000000000000e+00 0.000000000000e+00
1.600000000000e-01 0.000000000000e+00 0.000000000000e+00
1.650000000000e-01 0.000000000000e+00 0.000000000000e+00
1.700000000000e-01 0.000000000000e+00 0.000000000000e+00
1.750000000000e-01 0.000000000000e+00 0.000000000000e+00
1.800000000000e-01 0.000000000000e+00 0.000000000000e+00
1.850000000000e-01 0.000000000000e+00 0.000000000000e+00
1.900000000000e-01 0.000000000000e+00 0.000000000000e+00
1.950000000000e-01 0.000000000000e+00 0.000000000000e+00
2.000000000000e-01 0.000000000000e+00 0.000000000000e+00
2.050000000000e-01 0.000000000000e+00 0.000000000000e+00
2.100000000000e-01 0.000000000000e+00 0.000000000000e+00
2.150000000000e-01 0.000000000000e+00 0.000000000000e+00
2.200000000000e-01 0.000000000000e+00 0.000000000000e+00
2.250000000000e-01 0.000000000000e+00 0.000000000000e+00
2.300000000000e-01 0.000000000000e+00 0.000000000000e+00
2.350000000000e-01 0.000000000000e+00 0.000000000000e+00
2.400000000000e-01 0.000000000000e+00 0.000000000000e+00
2.450000000000e-01 0.000000000000e+00 0.000000000000e+00
2.500000000000e-01 0.000000000000e+00 0.000000000000e+00
2.550000000000e-01 0.000000000000e+00 0.000000000000e+00
2.600000000000e-01 0.000000000000e+00 0.000000000000e+00
2.650000000000e-01 0.000000000000e+00 0.000000000000e+00
2.700000000000e-01 0.000000000000e+00 0.000000000000e+00
2.750000000000e-01 0.000000000000e+00 0.000000000000e+00
2.800000000000e-01 0.000000000000e+00 0.000000000000e+00
2.850000000000e-01 0.000000000000e+00 0.000000000000e+00
2.900000000000e-01 0.000000000000e+00 0.000000000000e+00
2.950000000000e-01 0.000000000000e+00 0.000000000000e+00
3.000000000000e-01 0.000000000000e+00 0.000000000000e+00
3.050000000000e-01 0.000000000000e+00 0.000000000000e+00
3.100000000000e-01 0.000000000000e+00 0.000000000000e+00
3.150000000000e-01 0.000000000000e+00 0.000000000000e+00
3.200000000000e-01 0.000000000000e+00 0.000000000000e+00
3.250000000000e-01 0.000000000000e+00 0.000000000000e+00
3.300000000000e-01 0.000000000000e+00 0.000000000000e+00
3.350000000000e-01 0.000000000000e+00 0.000000000000e+00
3.400000000000e-01 0.000000000000e+00 0.000000000000e+00
3.450000000000e-01 0.000000000000e+00 0.000000000000e+00
3.500000000000e-01 0.000000000000e+00 0.000000000000e+00
3.550000000000e-01 0.000000000000e+00 0.000000000000e+00
3.600000000000e-01 0.000000000000e+00 0.000000000000e+00
3.650000000000e-01 0.000000000000e+00 0.000000000000e+00
3.700000000000e-01 0.000000000000e+00 0.000000000000e+00
3.750000000000e-01 0.000000000000e+00 0.000000000000e+00
3.800000000000e-01 0.000000000000e+00 0.000000000000e+00
3.850000000000e-01 0.000000000000e+00 0.000000000000e+00
3.900000000000e-01 0.000000000000e+00 0.000000000000e+00
3.950000000000e-01 0.000000000000e+00 0.000000000000e+00
4.000000000000e-01 0.000000000000e+00 0.000000000000e+00
4.050000000000e-01 0.000000000000e+00 0.000000000000e+00
4.100000000000e-01 0.000000000000e+00 0.000000000000e+00
4.150000000000e-01 0.000000000000e+00 0.000000000000e+00
4.200000000000e-01 0.000000000000e+00 0.000000000000e+00
4.250000000000e-01 0.000000000000e+00 0.000000000000e+00
4.300000000000e-01 0.000000000000e+00 0.000000000000e+00
4.350000000000e-01 0.000000000000e+00 0.000000000000e+00
4.400000000000e-01 0.000000000000e+00 0.000000000000e+00
4.450000000000e-01 0.000000000000e+00 0.000000000000e+00
4.500000000000e-01 0.000000000000e+00 0.000000000000e+00
4.550000000000e-01 0.000000000000e+00 0.000000000000e+00
4.600000000000e-01 0.000000000000e+00 0.000000000000e+00
4.650000000000e-01 0.000000000000e+00 0.000000000000e+00
4.700000000000e-01 0.000000000000e+00 0.000000000000e+00
4.750000000000e-01 0.000000000000e+00 0.000000000000e+00
4.800000000000e-01 0.000000000000e+00 0.000000000000e+00
4.850000000000e-01 0.000000000000e+00 0.000000000000e+00
4.900000000000e-01 0.000000000000e+00 0.000000000000e+00
4.950000000000e-01 0.000000000000e+00 0.000000000000e+00
5.000000000000e-01 0.000000000000e+00 0.000000000000e+00
CELLS 100 300
2 0 1
2 2 3
2 4 5
2 6 7
2 8 9
2 10 11
2 12 13
2 14 15
2 16 17
2 18 19
2 20 21
2 22 23
2 24 25
2 26 27
2 28 29
2 30 31
2 32 33
2 34 35
2 36 37
2 38 39
2 40 41
2 42 43
2 44 45
2 46 47
2 48 49
2 50 51
2 52 53
2 54 55
2 56 57
2 58 59
2 60 61
2 62 63
2 64 65
2 66 67
2 68 69
2 70 71
2 72 73
2 74 75
2 76 77
2 78 79
2 80 81
2 82 83
2 84 85
2 86 87
2 88 89
2 90 91
2 92 93
2 94 95
2 96 97
2 98 99
2 1 2
2 3 4
2 5 6
2 7 8
2 9 10
2 11 12
2 13 14
2 15 16
2 17 18
2 19 20
2 21 22
2 23 24
2 25 26
2 27 28
2 29 30
2 31 32
2 33 34
2 35 36
2 37 38
2 39 40
2 41 42
2 43 44
2 45 46
2 47 48
2 49 50
2 51 52
2 53 54
2 55 56
2 57 58
2 59 60
2 61 62
2 63 64
2 65 66
2 67 68
2 69 70
2 71 72
2 73 74
2 75 76
2 77 78
2 79 80
2 81 82
2 83 84
2 85 86
2 87 88
2 89 90
2 91 92
2 93 94
2 95 96
2 97 98
2 99 100

CELL_TYPES 100
3
3
3
3
3
3
3
3
3
3
3
3
3
3
3
3
3
3
3
3
3
3
3
3
3
3
3
3
3
3
3
3
3
3
3
3
3
3
3
3
3
3
3
3
3
3
3
3
3
3
3
3
3
3
3
3
3
3
3
3
3
3
3
3
3
3
3
3
3
3
3
3
3
3
3
3
3
3
3
3
3
3
3
3
3
3
3
3
3
3
3
3
3
3
3
3
3
3
3
3

POINT_DATA 101
SCALARS 1-C double 1
LOOKUP_TABLE default
9.970358361137e-06
2.865897377310e-04
8.184745697704e-04
1.780599462994e-03
3.456826530651e-03
6.310722434896e-03
1.108973642483e-02
1.891514447963e-02
3.129413704122e-02
5.043406766132e-02
8.163285183894e-02
1.402713088375e-01
1.386321425833e-01
1.365888092455e-01
1.341226134260e-01
1.312241688548e-01
1.279095133053e-01
1.242526275102e-01
1.203100810872e-01
1.162107185457e-01
1.120638172603e-01
1.080163399285e-01
1.041835748733e-01
1.008489772652e-01
9.827507129837e-02
9.572493275216e-02
9.888103520402e-02
1.012614176804e-01
1.033861726314e-01
1.055137542426e-01
1.076280719372e-01
1.096708269288e-01
1.116078234919e-01
1.134082632407e-01
1.150375248096e-01
1.164786125223e-01
1.177225953503e-01
1.187670778165e-01
1.196273747267e-01
1.203249920028e-01
1.208836926582e-01
1.212906080027e-01
1.216011669942e-01
1.218480226455e-01
1.220123251851e-01
1.221265725862e-01
1.222194055338e-01
1.222830153112e-01
1.223197497210e-01
1.223465008038e-01
1.223642799854e-01
1.223670640871e-01
1.223922553130e-01
1.223894688124e-01
1.224706172500e-01
1.223827223945e-01
1.223890054016e-01
1.223928157349e-01
1.223910177235e-01
1.223908221997e-01
1.223891938883e-01
1.223933048053e-01
1.223945458153e-01
1.223911590428e-01
1.223870572809e-01
1.223933710330e-01
1.223935571564e-01
1.223940878270e-01
1.223853440428e-01
1.223949201295e-01
1.223985507044e-01
1.224021160780e-01
1.223924000645e-01
1.223942317530e-01
1.223918101661e-01
1.224015135280e-01
1.223877524643e-01
1.223910617485e-01
1.223966705722e-01
1.223947548068e-01
1.223991165560e-01
1.223909452009e-01
1.223931542479e-01
1.223934872794e-01
1.223819677699e-01
1.223913568035e-01
1.223997559655e-01
1.224012238966e-01
1.223940549243e-01
1.223912364701e-01
1.223883765148e-01
1.223934035308e-01
1.224029858328e-01
1.223942086715e-01
1.223947899847e-01
1.223999979721e-01
1.223913925412e-01
1.224053833913e-01
1.223971485870e-01
1.224011892507e-01
1.223941560608e-01
SCALARS 2-Ca double 1
LOOKUP_TABLE default
9.970358361137e-06
1.882375055533e-04
5.287176608294e-04
1.138201128187e-03
2.185720678589e-03
3.940089014919e-03
6.824360076570e-03
1.146334118243e-02
1.869223967581e-02
2.971632418851e-02
4.730845427688e-02
7.930723859383e-02
8.202806050617e-02
8.560850101784e-02
9.026736103966e-02
9.625538455226e-02
1.038629953028e-01
1.134363876621e-01
1.253401801214e-01
1.399995429305e-01
1.578515799707e-01
1.794421546604e-01
2.054215573562e-01
2.355146008424e-01
2.681351107373e-01
3.165860158095e-01
2.902884430012e-01
2.691682761590e-01
2.504946371641e-01
2.331072326212e-01
2.171614901741e-01
2.027385162705e-01
1.898687641609e-01
1.785322853279e-01
1.686605499369e-01
1.601649415141e-01
1.529352959762e-01
1.468468273775e-01
1.417793762272e-01
1.376131676281e-01
1.342310979446e-01
1.314848521207e-01
1.293035708104e-01
1.276052898927e-01
1.262696228799e-01
1.252410879121e-01
1.244736417764e-01
1.238972873713e-01
1.234635236363e-01
1.231483808283e-01
1.229205755066e-01
1.227489655932e-01
1.226517155572e-01
1.225639261011e-01
1.225867173363e-01
1.224591989540e-01
1.224388714141e-01
1.224250034640e-01
1.224115868108e-01
1.224038361426e-01
1.223973466117e-01
1.223983622098e-01
1.223976526309e-01
1.223930492005e-01
1.223881962390e-01
1.223940508267e-01
1.223939590758e-01
1.223943232378e-01
1.223854806496e-01
1.223949986730e-01
1.223985954523e-01
1.224021413415e-01
1.223924141998e-01
1.223942395917e-01
1.223918144748e-01
1.224015158756e-01
1.223877537324e-01
1.223910624276e-01
1.223966709327e-01
1.223947549966e-01
1.223991166551e-01
1.223909452522e-01
1.223931542743e-01
1.223934872928e-01
1.223819677767e-01
1.223913568069e-01
1.223997559672e-01
1.224012238974e-01
1.223940549247e-01
1.223912364703e-01
1.223883765149e-01
1.223934035308e-01
1.224029858328e-01
1.223942086715e-01
1.223947899847e-01
1.223999979721e-01
1.223913925412e-01
1.224053833913e-01
1.223971485870e-01
1.224011892507e-01
1.223941560608e-01
SCALARS 3-Cl double 1
LOOKUP_TABLE default
3.988143344455e+00
3.987574756637e+00
3.986518792414e+00
3.984712445195e+00
3.981795093358e+00
3.977287894370e+00
3.970574404797e+00
3.960884814179e+00
3.947286633048e+00
3.928684951206e+00
3.903835259827e+00
3.871371038178e+00
3.829843684487e+00
3.777791319409e+00
3.713806382679e+00
3.636623726062e+00
3.545212372864e+00
3.438866274564e+00
3.317286342915e+00
3.180645915244e+00
3.029632481612e+00
2.865460166631e+00
2.689849736280e+00
2.504975775821e+00
2.313383543651e+00
2.117881217912e+00
1.921415772275e+00
1.726939405597e+00
1.537279877729e+00
1.355021693053e+00
1.182406775950e+00
1.021260530868e+00
8.729465991187e-01
7.383510111406e-01
6.178939722932e-01
5.115654619951e-01
4.189793869919e-01
3.394402487329e-01
2.720161741259e-01
2.156126105042e-01
1.690418809185e-01
1.310849520588e-01
1.005430327563e-01
7.627784098103e-02
5.724044979659e-02
4.248946907715e-02
3.119991196501e-02
2.266443821198e-02
1.628878561759e-02
1.158314291670e-02
8.151034473854e-03
5.677028503495e-03
3.914291155451e-03
2.672723074735e-03
1.808157358654e-03
1.212881812049e-03
8.075803333010e-04
5.346664772568e-04
3.529028724782e-04
2.331548113880e-04
1.551078250280e-04
1.047791702183e-04
7.266541469689e-05
5.238727476714e-05
3.971453143255e-05
3.187549757408e-05
2.707543045808e-05
2.416559755046e-05
2.241910195500e-05
2.138112435450e-05
2.077022242345e-05
2.041413252789e-05
2.020854646300e-05
2.009097161619e-05
2.002435808969e-05
1.998696617128e-05
1.996616918905e-05
1.995470694983e-05
1.994844623533e-05
1.994505698914e-05
1.994323835600e-05
1.994227099315e-05
1.994176088239e-05
1.994149418213e-05
1.994135592047e-05
1.994128484875e-05
1.994124861900e-05
1.994123030107e-05
1.994122110742e-05
1.994121653500e-05
1.994121427906e-05
1.994121317716e-05
1.994121264348e-05
1.994121238231e-05
1.994121225699e-05
1.994121220290e-05
1.994121217201e-05
1.994121216268e-05
1.994121215416e-05
1.994121215064e-05
1.994121215195e-05
SCALARS 4-H double 1
LOOKUP_TABLE default
2.701109245634e-04
6.710183234393e-04
1.668595701672e-03
3.536771862035e-03
6.761603444039e-03
1.210579311605e-02
2.066096713822e-02
3.376165845754e-02
5.265645473845e-02
7.863129341162e-02
1.152207482387e-01
1.721238605754e-01
1.706765210842e-01
1.688601499739e-01
1.666497334266e-01
1.640259790113e-01
1.609897364834e-01
1.575977905257e-01
1.538697386791e-01
1.499442402957e-01
1.458727126622e-01
1.418157948167e-01
1.378917280838e-01
1.343539173538e-01
1.315250931360e-01
1.284801803356e-01
1.322712976152e-01
1.352682336764e-01
1.380148022028e-01
1.408193702891e-01
1.436170810921e-01
1.463822144988e-01
1.490247717063e-01
1.515519689009e-01
1.538706568396e-01
1.559739505625e-01
1.578537181223e-01
1.594753770596e-01
1.608579769093e-01
1.620173806300e-01
1.629747727325e-01
1.637252843451e-01
1.643252685941e-01
1.647908431225e-01
1.651507894312e-01
1.654040377061e-01
1.656022645427e-01
1.657519350099e-01
1.658575836606e-01
1.659432903272e-01
1.659825605973e-01
1.660222097645e-01
1.660587088823e-01
1.660586515221e-01
1.661204645596e-01
1.660809494338e-01
1.660830586923e-01
1.660886805197e-01
1.660882945325e-01
1.661087095656e-01
1.660908332039e-01
1.660987862517e-01
1.661043498775e-01
1.660999752126e-01
1.660920512201e-01
1.661100998757e-01
1.661013913767e-01
1.660994768873e-01
1.660928514012e-01
1.660962167767e-01
1.660994221656e-01
1.661087649411e-01
1.660994599878e-01
1.660913875739e-01
1.660974820236e-01
1.661105522911e-01
1.661028104204e-01
1.661115078725e-01
1.661133709200e-01
1.661042337452e-01
1.661084837663e-01
1.661130781743e-01
1.661128893500e-01
1.660925737245e-01
1.661001007402e-01
1.661119332933e-01
1.661031202906e-01
1.661039487665e-01
1.661103612973e-01
1.660934210551e-01
1.661034763950e-01
1.661163727986e-01
1.661049283737e-01
1.661126327103e-01
1.660972446815e-01
1.660990950296e-01
1.661003798132e-01
1.661098181108e-01
1.661091436425e-01
1.661021114665e-01
1.660985756132e-01
SCALARS 5-Mg double 1
LOOKUP_TABLE default
1.994071672227e+00
1.993885730550e+00
1.993549153116e+00
1.992998620932e+00
1.992168652531e+00
1.991014580605e+00
1.989552578747e+00
1.987894210387e+00
1.986245213890e+00
1.985060219076e+00
1.986242027475e+00
1.996649589333e+00
1.971525924321e+00
1.939875967932e+00
1.900758443726e+00
1.853280647334e+00
1.796652704435e+00
1.730249377130e+00
1.653613072423e+00
1.566534133237e+00
1.469028478096e+00
1.361304268584e+00
1.243686885657e+00
1.117822264333e+00
9.868317323868e-01
8.380795258989e-01
7.693004783402e-01
6.955628443201e-01
6.215314743320e-01
5.499173681481e-01
4.816699697383e-01
4.175625760926e-01
3.582123588904e-01
3.040514834831e-01
2.553239610194e-01
2.120964020058e-01
1.742769928701e-01
1.416403748055e-01
1.138560855624e-01
9.051812962673e-02
7.117353517269e-02
5.534823191129e-02
4.256911256189e-02
3.238165324327e-02
2.436292720336e-02
1.813021921259e-02
1.334571973979e-02
9.717947045777e-03
7.000618893397e-03
4.989691433721e-03
3.519221715630e-03
2.456612745611e-03
1.697685333509e-03
1.161904248583e-03
7.879785930079e-04
5.299643464287e-04
3.539241541142e-04
2.351455094994e-04
1.558823489338e-04
1.035634627773e-04
6.940118903995e-05
4.733218062214e-05
3.322589180281e-05
2.430347962952e-05
1.871830761394e-05
1.525795509146e-05
1.313579580219e-05
1.184738800852e-05
1.107294420698e-05
1.061201873319e-05
1.034036329863e-05
1.018180272826e-05
1.009013785523e-05
1.003764707428e-05
1.000787037569e-05
9.991135440696e-06
9.981816513478e-06
9.976674396139e-06
9.973862551491e-06
9.972338660344e-06
9.971520067041e-06
9.971084179814e-06
9.970854088817e-06
9.970733668487e-06
9.970671178512e-06
9.970639025275e-06
9.970622619295e-06
9.970614316662e-06
9.970610145508e-06
9.970608069211e-06
9.970607043946e-06
9.970606542852e-06
9.970606300028e-06
9.970606180922e-06
9.970606123707e-06
9.970606099224e-06
9.970606084981e-06
9.970606080870e-06
9.970606076867e-06
9.970606075218e-06
9.970606075907e-06
SCALARS 6-O double 1
LOOKUP_TABLE default
2.010568337471e-02
2.116157975223e-02
2.330353825374e-02
2.720528148237e-02
3.397765128440e-02
4.541424567046e-02
6.433096412225e-02
9.479354060541e-02
1.419897993763e-01
2.132340394251e-01
3.262433060818e-01
5.320710953825e-01
5.282985015886e-01
5.236024910968e-01
5.179778104616e-01
5.114435885112e-01
5.040947623017e-01
4.962134460488e-01
4.879926154923e-01
4.798803447254e-01
4.721992490476e-01
4.654159123957e-01
4.598578976301e-01
4.564044280575e-01
4.558899083655e-01
4.555146565126e-01
4.757195920815e-01
4.931108635433e-01
5.093934002849e-01
5.253804382608e-01
5.408903789412e-01
5.556533083688e-01
5.694602602684e-01
5.821825597352e-01
5.936508425882e-01
6.038111153452e-01
6.126498800216e-01
6.201739454873e-01
6.264807070464e-01
6.316918632552e-01
6.359427378024e-01
6.392471457162e-01
6.418534973850e-01
6.439190359001e-01
6.454488078938e-01
6.465821394933e-01
6.474679201019e-01
6.481177909525e-01
6.485678092050e-01
6.489027364396e-01
6.491302049843e-01
6.492697503870e-01
6.494429254259e-01
6.494904286753e-01
6.498037014606e-01
6.495470571179e-01
6.495852069964e-01
6.496117353542e-01
6.496143313808e-01
6.496293434579e-01
6.496190341226e-01
6.496376093641e-01
6.496455599983e-01
6.496341253522e-01
6.496184286509e-01
6.496467471544e-01
6.496431674122e-01
6.496439332376e-01
6.496144677344e-01
6.496449254369e-01
6.496574474069e-01
6.496728309579e-01
6.496390396674e-01
6.496405038130e-01
6.496362892765e-01
6.496719362255e-01
6.496267830104e-01
6.496410601279e-01
6.496588183873e-01
6.496485026484e-01
6.496637129743e-01
6.496414961073e-01
6.496480288838e-01
6.496388701997e-01
6.496080751592e-01
6.496421585464e-01
6.496629495969e-01
6.496677676632e-01
6.496494670021e-01
6.496325414640e-01
6.496289892522e-01
6.496505184825e-01
6.496735432469e-01
6.496510639256e-01
6.496451137946e-01
6.496616630000e-01
6.496364890522e-01
6.496831808046e-01
6.496581391054e-01
6.496667450142e-01
6.496438775133e-01
SCALARS 7-Sn double 1
LOOKUP_TABLE default
0.000000000000e+00
0.000000000000e+00
0.000000000000e+00
0.000000000000e+00
0.000000000000e+00
0.000000000000e+00
0.000000000000e+00
0.000000000000e+00
0.000000000000e+00
0.000000000000e+00
0.000000000000e+00
0.000000000000e+00
0.000000000000e+00
0.000000000000e+00
0.000000000000e+00
0.000000000000e+00
0.000000000000e+00
0.000000000000e+00
0.000000000000e+00
0.000000000000e+00
0.000000000000e+00
0.000000000000e+00
0.000000000000e+00
0.000000000000e+00
0.000000000000e+00
0.000000000000e+00
0.000000000000e+00
0.000000000000e+00
0.000000000000e+00
0.000000000000e+00
0.000000000000e+00
0.000000000000e+00
0.000000000000e+00
0.000000000000e+00
0.000000000000e+00
0.000000000000e+00
0.000000000000e+00
0.000000000000e+00
0.000000000000e+00
0.000000000000e+00
0.000000000000e+00
0.000000000000e+00
0.000000000000e+00
0.000000000000e+00
0.000000000000e+00
0.000000000000e+00
0.000000000000e+00
0.000000000000e+00
0.000000000000e+00
0.000000000000e+00
0.000000000000e+00
0.000000000000e+00
0.000000000000e+00
0.000000000000e+00
0.000000000000e+00
0.000000000000e+00
0.000000000000e+00
0.000000000000e+00
0.000000000000e+00
0.000000000000e+00
0.000000000000e+00
0.000000000000e+00
0.000000000000e+00
0.000000000000e+00
0.000000000000e+00
0.000000000000e+00
0.000000000000e+00
0.000000000000e+00
0.000000000000e+00
0.000000000000e+00
0.000000000000e+00
0.000000000000e+00
0.000000000000e+00
0.000000000000e+00
0.000000000000e+00
0.000000000000e+00
0.000000000000e+00
0.000000000000e+00
0.000000000000e+00
0.000000000000e+00
0.000000000000e+00
0.000000000000e+00
0.000000000000e+00
0.000000000000e+00
0.000000000000e+00
0.000000000000e+00
0.000000000000e+00
0.000000000000e+00
0.000000000000e+00
0.000000000000e+00
0.000000000000e+00
0.000000000000e+00
0.000000000000e+00
0.000000000000e+00
0.000000000000e+00
0.000000000000e+00
0.000000000000e+00
0.000000000000e+00
0.000000000000e+00
0.000000000000e+00
0.000000000000e+00
SCALARS 8-Zz double 1
LOOKUP_TABLE default
1.035722930241e-15
4.644604036096e-15
-8.995132228082e-16
4.070019680640e-15
1.034094352308e-16
7.915725818099e-16
2.884003458462e-16
4.990631779323e-16
4.259688138704e-16
-1.440283726955e-16
-5.960845817683e-16
2.553210868706e-16
-7.068592923543e-16
-2.006538852787e-16
9.537420938233e-16
7.504949771512e-16
-1.794074771386e-16
1.023162811144e-16
-3.628954436162e-16
-1.635276590312e-16
-2.718558903439e-16
9.609632288433e-17
1.264289148516e-16
2.893220274479e-16
1.758051255966e-17
3.724624908379e-16
1.744974305507e-16
4.980197407881e-17
2.668726615017e-16
-4.547763167068e-17
-1.997701706738e-16
2.804096713569e-16
-2.066326484041e-17
-1.654984974831e-16
1.091937468629e-16
-2.781992036980e-17
1.861733196692e-16
8.399179492041e-18
-1.089889237429e-16
2.185483269271e-17
6.706750268820e-17
8.052036387851e-18
-8.565812281467e-18
4.698908674282e-17
2.384020519423e-19
3.593049797550e-17
-3.516095262252e-17
-4.529218848163e-17
6.806406645173e-19
1.435412362440e-17
3.352864950952e-17
-3.453552380743e-17
5.812973818385e-17
-5.137622940143e-18
7.637954990634e-18
-3.668997105352e-18
2.378778094955e-18
9.757499751201e-18
1.408081870391e-17
4.098651151890e-19
-2.376949405176e-17
1.126887642389e-17
2.791644491992e-17
3.181007912370e-17
4.362605557746e-17
-6.509128281535e-18
-3.395867122526e-17
3.720868290400e-18
-3.810963799682e-17
3.264841820334e-17
-2.808263488124e-18
-2.039078563589e-17
-1.301485365712e-17
3.120808840327e-17
-2.454455747434e-17
-3.459611649396e-20
8.069387123694e-18
-1.538307045957e-17
-4.708206494156e-17
1.840182313419e-17
2.435056165846e-17
-1.302029524941e-17
-3.234483983697e-18
5.875346416906e-18
6.183002026882e-19
2.418283876959e-17
-2.180536356276e-18
5.487738102012e-18
-3.669611776509e-17
3.810732346849e-17
-2.322832621846e-17
2.226624153976e-17
-1.498436440503e-17
3.718966056577e-17
-6.353775295214e-18
4.644555470885e-18
4.365473492530e-17
2.668223578292e-18
-5.234206949663e-18
-2.113350621786e-17
-6.566379655541e-18
SCALARS C double 1
LOOKUP_TABLE default
 3.190559220786e-06
 9.170921339527e-05
 2.619132826317e-04
 5.697949180459e-04
 1.106190488466e-03
 2.019442130212e-03
 3.548734900049e-03
 6.052879057077e-03
 1.001417815815e-02
 1.613898917024e-02
 2.612265424657e-02
 7.169704363313e-02
 1.139368351618e-01
 1.196545428266e-01
 1.196787441364e-01
 1.187372906474e-01
 1.174314494558e-01
 1.159534511157e-01
 1.143724968127e-01
 1.126612591280e-01
 1.108627231164e-01
 1.091054770192e-01
 1.073337988279e-01
 1.057220617456e-01
 1.042384279405e-01
 1.020738020473e-01
 1.015560818160e-01
 1.023351712769e-01
 1.030098302171e-01
 1.036434444003e-01
 1.042023519664e-01
 1.047653437695e-01
 1.053385742367e-01
 1.058713068966e-01
 1.063312545931e-01
 1.067691530355e-01
 1.071794214915e-01
 1.074653497351e-01
 1.077660082069e-01
 1.079739987011e-01
 1.081245950622e-01
 1.082947969282e-01
 1.083783634851e-01
 1.084742978802e-01
 1.085172863414e-01
 1.085216989909e-01
 1.086083549793e-01
 1.086235429657e-01
 1.085791468521e-01
 1.086379141078e-01
 1.085988129602e-01
 1.086510743104e-01
 1.086532105270e-01
 1.085992637822e-01
 1.086490605685e-01
 1.086326772814e-01
 1.086701835721e-01
 1.086286381268e-01
 1.086270506150e-01
 1.086783644096e-01
 1.086118300539e-01
 1.086556428253e-01
 1.086385070304e-01
 1.086180920435e-01
 1.086440922108e-01
 1.086475442322e-01
 1.086335585402e-01
 1.086480619685e-01
 1.086165557320e-01
 1.086817677351e-01
 1.085810836769e-01
 1.086718211259e-01
 1.086401124546e-01
 1.086471083842e-01
 1.086321441808e-01
 1.086150329889e-01
 1.086969781151e-01
 1.086162019970e-01
 1.086173847342e-01
 1.086592806672e-01
 1.086101788966e-01
 1.086581725456e-01
 1.086451738883e-01
 1.086223430389e-01
 1.086634804280e-01
 1.086402011603e-01
 1.086227848109e-01
 1.086418253686e-01
 1.086518139374e-01
 1.086298040603e-01
 1.086293371112e-01
 1.086550853197e-01
 1.086180397386e-01
 1.086904517741e-01
 1.086136611253e-01
 1.086283249548e-01
 1.086388948336e-01
 1.086488786336e-01
 1.086102433696e-01
 1.086962561464e-01
 1.085527845226e-01
SCALARS Ca double 1
LOOKUP_TABLE default
 3.190559220786e-06
 6.023632842703e-05
 1.691905689532e-04
 3.642263361488e-04
 6.994344100462e-04
 1.260835322041e-03
 2.183807066867e-03
 3.668289070801e-03
 5.981549133045e-03
 9.509275307288e-03
 1.513878746332e-02
 3.878343675165e-02
 6.103624771447e-02
 6.536776997049e-02
 6.726529237384e-02
 6.917447882495e-02
 7.148633205768e-02
 7.439591238203e-02
 7.804544695702e-02
 8.253671145281e-02
 8.801358721152e-02
 9.469153025924e-02
 1.027323265891e-01
 1.120897502787e-01
 1.221983048082e-01
 1.493965169590e-01
 1.615694243190e-01
 1.560652236812e-01
 1.500844142150e-01
 1.444732495873e-01
 1.392529536559e-01
 1.345469263762e-01
 1.303820098096e-01
 1.267109396128e-01
 1.234905780024e-01
 1.207487419894e-01
 1.184474563980e-01
 1.164508462848e-01
 1.148546302774e-01
 1.135062005434e-01
 1.123957536827e-01
 1.115569465752e-01
 1.108431263105e-01
 1.103166186151e-01
 1.098796180675e-01
 1.095183413119e-01
 1.093297087024e-01
 1.091401086829e-01
 1.089451535565e-01
 1.088945150492e-01
 1.087768270656e-01
 1.087732824748e-01
 1.087362375894e-01
 1.086550899699e-01
 1.086862124997e-01
 1.086571497170e-01
 1.086861406546e-01
 1.086389381734e-01
 1.086336327059e-01
 1.086825288605e-01
 1.086144389186e-01
 1.086572611905e-01
 1.086395012088e-01
 1.086186968924e-01
 1.086444566764e-01
 1.086477617656e-01
 1.086336871541e-01
 1.086481372998e-01
 1.086165994460e-01
 1.086817928690e-01
 1.085810979962e-01
 1.086718292102e-01
 1.086401169779e-01
 1.086471108926e-01
 1.086321455596e-01
 1.086150337401e-01
 1.086969785209e-01
 1.086162022143e-01
 1.086173848496e-01
 1.086592807280e-01
 1.086101789283e-01
 1.086581725620e-01
 1.086451738967e-01
 1.086223430432e-01
 1.086634804301e-01
 1.086402011614e-01
 1.086227848114e-01
 1.086418253688e-01
 1.086518139375e-01
 1.086298040604e-01
 1.086293371112e-01
 1.086550853197e-01
 1.086180397386e-01
 1.086904517741e-01
 1.086136611253e-01
 1.086283249548e-01
 1.086388948336e-01
 1.086488786336e-01
 1.086102433696e-01
 1.086962561464e-01
 1.085527845226e-01
SCALARS Cl double 1
LOOKUP_TABLE default
 1.276223688314e+00
 1.276030841793e+00
 1.275692931409e+00
 1.275114897164e+00
 1.274181339514e+00
 1.272739028016e+00
 1.270590699703e+00
 1.267490013891e+00
 1.263138572332e+00
 1.257186001863e+00
 1.249234057500e+00
 1.238842108658e+00
 1.225548046316e+00
 1.208890540806e+00
 1.188415309215e+00
 1.163716917535e+00
 1.134465379728e+00
 1.100434739730e+00
 1.061529282968e+00
 1.017804483681e+00
 9.694803358018e-01
 9.169453491722e-01
 8.607501753700e-01
 8.015906715565e-01
 7.402813270116e-01
 6.777205453574e-01
 6.148514423969e-01
 5.526191461303e-01
 4.919282582565e-01
 4.336057959596e-01
 3.783691735901e-01
 3.268025141509e-01
 2.793421817677e-01
 2.362717073461e-01
 1.977255568485e-01
 1.637005224917e-01
 1.340730552837e-01
 1.086205978159e-01
 8.704494965739e-02
 6.899585629486e-02
 5.409326168045e-02
 4.194707573549e-02
 3.217368699581e-02
 2.440884572868e-02
 1.831689638959e-02
 1.359659486234e-02
 9.983945884812e-03
 7.252601385758e-03
 5.212397889734e-03
 3.706596106244e-03
 2.608324270547e-03
 1.816644401389e-03
 1.252569916364e-03
 8.552691677070e-04
 5.786088538633e-04
 3.881211725469e-04
 2.584250348951e-04
 1.710928288206e-04
 1.129286262121e-04
 7.460934563596e-05
 4.963437532187e-05
 3.352924737408e-05
 2.325287234826e-05
 1.676388445084e-05
 1.270861706045e-05
 1.020013273734e-05
 8.664115262793e-06
 7.732971135925e-06
 7.174094020385e-06
 6.841942000548e-06
 6.646453969120e-06
 6.532505429977e-06
 6.466718081548e-06
 6.429094223480e-06
 6.407777960842e-06
 6.395812592925e-06
 6.389157512189e-06
 6.385489665499e-06
 6.383486242505e-06
 6.382401655223e-06
 6.381819731324e-06
 6.381510138739e-06
 6.381346913815e-06
 6.381261586847e-06
 6.381217310216e-06
 6.381194586684e-06
 6.381183008003e-06
 6.381177132601e-06
 6.381174181594e-06
 6.381172733970e-06
 6.381172011743e-06
 6.381171641356e-06
 6.381171500122e-06
 6.381171361146e-06
 6.381171377738e-06
 6.381171350855e-06
 6.381171331159e-06
 6.381171324116e-06
 6.381171347906e-06
 6.381171284381e-06
 6.381171388810e-06
SCALARS H double 1
LOOKUP_TABLE default
 3.542055048139e+04
 3.542024818338e+04
 3.542024853929e+04
 3.542024919065e+04
 3.542025030260e+04
 3.542025214172e+04
 3.542025514835e+04
 3.542026001996e+04
 3.542026778243e+04
 3.542028000749e+04
 3.542030010780e+04
 3.542024210047e+04
 3.542009690884e+04
 3.542008321876e+04
 3.542009139888e+04
 3.542010481374e+04
 3.542012152500e+04
 3.542014107991e+04
 3.542016335133e+04
 3.542018857261e+04
 3.542021659684e+04
 3.542024691254e+04
 3.542027950032e+04
 3.542031384442e+04
 3.542035020520e+04
 3.542037510069e+04
 3.542040382542e+04
 3.542044671555e+04
 3.542048964719e+04
 3.542053118004e+04
 3.542057093575e+04
 3.542060807698e+04
 3.542064221064e+04
 3.542067328102e+04
 3.542070125005e+04
 3.542072586507e+04
 3.542074720148e+04
 3.542076579017e+04
 3.542078128583e+04
 3.542079440209e+04
 3.542080529725e+04
 3.542081389483e+04
 3.542082100245e+04
 3.542082653311e+04
 3.542083094534e+04
 3.542083445777e+04
 3.542083681683e+04
 3.542083879194e+04
 3.542084047314e+04
 3.542084133806e+04
 3.542084230203e+04
 3.542084264600e+04
 3.542084308234e+04