# vtk DataFile Version 3.0
Unstructured Grid from OpenGeoSys
ASCII
DATASET UNSTRUCTURED_GRID
FIELD TimesAndCycles 2
TIME 1 1 double
7.000000000000e+03
CYLCE 1 1 long
70
POINTS 101 double
0.000000000000e+00 0.000000000000e+00 0.000000000000e+00
5.000000000000e-03 0.000000000000e+00 0.000000000000e+00
1.000000000000e-02 0.000000000000e+00 0.000000000000e+00
1.500000000000e-02 0.000000000000e+00 0.000000000000e+00
2.000000000000e-02 0.000000000000e+00 0.000000000000e+00
2.500000000000e-02 0.000000000000e+00 0.000000000000e+00
3.000000000000e-02 0.000000000000e+00 0.000000000000e+00
3.500000000000e-02 0.000000000000e+00 0.000000000000e+00
4.000000000000e-02 0.000000000000e+00 0.000000000000e+00
4.500000000000e-02 0.000000000000e+00 0.000000000000e+00
5.000000000000e-02 0.000000000000e+00 0.000000000000e+00
5.500000000000e-02 0.000000000000e+00 0.000000000000e+00
6.000000000000e-02 0.000000000000e+00 0.000000000000e+00
6.500000000000e-02 0.000000000000e+00 0.000000000000e+00
7.000000000000e-02 0.000000000000e+00 0.000000000000e+00
7.500000000000e-02 0.000000000000e+00 0.000000000000e+00
8.000000000000e-02 0.000000000000e+00 0.000000000000e+00
8.500000000000e-02 0.000000000000e+00 0.000000000000e+00
9.000000000000e-02 0.000000000000e+00 0.000000000000e+00
9.500000000000e-02 0.000000000000e+00 0.000000000000e+00
1.000000000000e-01 0.000000000000e+00 0.000000000000e+00
1.050000000000e-01 0.000000000000e+00 0.000000000000e+00
1.100000000000e-01 0.000000000000e+00 0.000000000000e+00
1.150000000000e-01 0.000000000000e+00 0.000000000000e+00
1.200000000000e-01 0.000000000000e+00 0.000000000000e+00
1.250000000000e-01 0.000000000000e+00 0.000000000000e+00
1.300000000000e-01 0.000000000000e+00 0.000000000000e+00
1.350000000000e-01 0.000000000000e+00 0.000000000000e+00
1.400000000000e-01 0.000000000000e+00 0.000000000000e+00
1.450000000000e-01 0.000000000000e+00 0.000000000000e+00
1.500000000000e-01 0.000000000000e+00 0.000000000000e+00
1.550000000000e-01 0.000000000000e+00 0.000000000000e+00
1.600000000000e-01 0.000000000000e+00 0.000000000000e+00
1.650000000000e-01 0.000000000000e+00 0.000000000000e+00
1.700000000000e-01 0.000000000000e+00 0.000000000000e+00
1.750000000000e-01 0.000000000000e+00 0.000000000000e+00
1.800000000000e-01 0.000000000000e+00 0.000000000000e+00
1.850000000000e-01 0.000000000000e+00 0.000000000000e+00
1.900000000000e-01 0.000000000000e+00 0.000000000000e+00
1.950000000000e-01 0.000000000000e+00 0.000000000000e+00
2.000000000000e-01 0.000000000000e+00 0.000000000000e+00
2.050000000000e-01 0.000000000000e+00 0.000000000000e+00
2.100000000000e-01 0.000000000000e+00 0.000000000000e+00
2.150000000000e-01 0.000000000000e+00 0.000000000000e+00
2.200000000000e-01 0.000000000000e+00 0.000000000000e+00
2.250000000000e-01 0.000000000000e+00 0.000000000000e+00
2.300000000000e-01 0.000000000000e+00 0.000000000000e+00
2.350000000000e-01 0.000000000000e+00 0.000000000000e+00
2.400000000000e-01 0.000000000000e+00 0.000000000000e+00
2.450000000000e-01 0.000000000000e+00 0.000000000000e+00
2.500000000000e-01 0.000000000000e+00 0.000000000000e+00
2.550000000000e-01 0.000000000000e+00 0.000000000000e+00
2.600000000000e-01 0.000000000000e+00 0.000000000000e+00
2.650000000000e-01 0.000000000000e+00 0.000000000000e+00
2.700000000000e-01 0.000000000000e+00 0.000000000000e+00
2.750000000000e-01 0.000000000000e+00 0.000000000000e+00
2.800000000000e-01 0.000000000000e+00 0.000000000000e+00
2.850000000000e-01 0.000000000000e+00 0.000000000000e+00
2.900000000000e-01 0.000000000000e+00 0.000000000000e+00
2.950000000000e-01 0.000000000000e+00 0.000000000000e+00
3.000000000000e-01 0.000000000000e+00 0.000000000000e+00
3.050000000000e-01 0.000000000000e+00 0.000000000000e+00
3.100000000000e-01 0.000000000000e+00 0.000000000000e+00
3.150000000000e-01 0.000000000000e+00 0.000000000000e+00
3.200000000000e-01 0.000000000000e+00 0.000000000000e+00
3.250000000000e-01 0.000000000000e+00 0.000000000000e+00
3.300000000000e-01 0.000000000000e+00 0.000000000000e+00
3.350000000000e-01 0.000000000000e+00 0.000000000000e+00
3.400000000000e-01 0.000000000000e+00 0.000000000000e+00
3.450000000000e-01 0.000000000000e+00 0.000000000000e+00
3.500000000000e-01 0.000000000000e+00 0.000000000000e+00
3.550000000000e-01 0.000000000000e+00 0.000000000000e+00
3.600000000000e-01 0.000000000000e+00 0.000000000000e+00
3.650000000000e-01 0.000000000000e+00 0.000000000000e+00
3.700000000000e-01 0.000000000000e+00 0.000000000000e+00
3.750000000000e-01 0.000000000000e+00 0.000000000000e+00
3.800000000000e-01 0.000000000000e+00 0.000000000000e+00
3.850000000000e-01 0.000000000000e+00 0.000000000000e+00
3.900000000000e-01 0.000000000000e+00 0.000000000000e+00
3.950000000000e-01 0.000000000000e+00 0.000000000000e+00
4.000000000000e-01 0.000000000000e+00 0.000000000000e+00
4.050000000000e-01 0.000000000000e+00 0.000000000000e+00
4.100000000000e-01 0.000000000000e+00 0.000000000000e+00
4.150000000000e-01 0.000000000000e+00 0.000000000000e+00
4.200000000000e-01 0.000000000000e+00 0.000000000000e+00
4.250000000000e-01 0.000000000000e+00 0.000000000000e+00
4.300000000000e-01 0.000000000000e+00 0.000000000000e+00
4.350000000000e-01 0.000000000000e+00 0.000000000000e+00
4.400000000000e-01 0.000000000000e+00 0.000000000000e+00
4.450000000000e-01 0.000000000000e+00 0.000000000000e+00
4.500000000000e-01 0.000000000000e+00 0.000000000000e+00
4.550000000000e-01 0.000000000000e+00 0.000000000000e+00
4.600000000000e-01 0.000000000000e+00 0.000000000000e+00
4.650000000000e-01 0.000000000000e+00 0.000000000000e+00
4.700000000000e-01 0.000000000000e+00 0.000000000000e+00
4.750000000000e-01 0.000000000000e+00 0.000000000000e+00
4.800000000000e-01 0.000000000000e+00 0.000000000000e+00
4.850000000000e-01 0.000000000000e+00 0.000000000000e+00
4.900000000000e-01 0.000000000000e+00 0.000000000000e+00
4.950000000000e-01 0.000000000000e+00 0.000000000000e+00
5.000000000000e-01 0.000000000000e+00 0.000000000000e+00
CELLS 100 300
2 0 1
2 2 3
2 4 5
2 6 7
2 8 9
2 10 11
2 12 13
2 14 15
2 16 17
2 18 19
2 20 21
2 22 23
2 24 25
2 26 27
2 28 29
2 30 31
2 32 33
2 34 35
2 36 37
2 38 39
2 40 41
2 42 43
2 44 45
2 46 47
2 48 49
2 50 51
2 52 53
2 54 55
2 56 57
2 58 59
2 60 61
2 62 63
2 64 65
2 66 67
2 68 69
2 70 71
2 72 73
2 74 75
2 76 77
2 78 79
2 80 81
2 82 83
2 84 85
2 86 87
2 88 89
2 90 91
2 92 93
2 94 95
2 96 97
2 98 99
2 1 2
2 3 4
2 5 6
2 7 8
2 9 10
2 11 12
2 13 14
2 15 16
2 17 18
2 19 20
2 21 22
2 23 24
2 25 26
2 27 28
2 29 30
2 31 32
2 33 34
2 35 36
2 37 38
2 39 40
2 41 42
2 43 44
2 45 46
2 47 48
2 49 50
2 51 52
2 53 54
2 55 56
2 57 58
2 59 60
2 61 62
2 63 64
2 65 66
2 67 68
2 69 70
2 71 72
2 73 74
2 75 76
2 77 78
2 79 80
2 81 82
2 83 84
2 85 86
2 87 88
2 89 90
2 91 92
2 93 94
2 95 96
2 97 98
2 99 100

CELL_TYPES 100
3
3
3
3
3
3
3
3
3
3
3
3
3
3
3
3
3
3
3
3
3
3
3
3
3
3
3
3
3
3
3
3
3
3
3
3
3
3
3
3
3
3
3
3
3
3
3
3
3
3
3
3
3
3
3
3
3
3
3
3
3
3
3
3
3
3
3
3
3
3
3
3
3
3
3
3
3
3
3
3
3
3
3
3
3
3
3
3
3
3
3
3
3
3
3
3
3
3
3
3

POINT_DATA 101
SCALARS 1-C double 1
LOOKUP_TABLE default
9.970358361137e-06
2.528118267119e-03
7.339253540730e-03
1.606657273076e-02
3.108981147522e-02
5.418678573093e-02
8.548266125152e-02
1.331200387637e-01
1.289875670109e-01
1.243495874747e-01
1.194367079973e-01
1.145129213275e-01
1.098374908200e-01
1.058649778139e-01
1.031586271120e-01
1.007611416769e-01
1.061996425235e-01
1.090020217025e-01
1.116351408250e-01
1.140416617696e-01
1.161345535087e-01
1.178817441506e-01
1.192660429851e-01
1.203062893520e-01
1.210623895924e-01
1.215864320799e-01
1.219168574184e-01
1.221450585278e-01
1.222627986705e-01
1.223371797932e-01
1.223730096687e-01
1.223969322505e-01
1.224037149984e-01
1.223886376404e-01
1.223981797254e-01
1.224058602603e-01
1.223949401728e-01
1.223953062788e-01
1.224034627630e-01
1.223984079843e-01
1.223932783526e-01
1.223952433914e-01
1.223904088628e-01
1.223837136164e-01
1.223884734978e-01
1.223955593867e-01
1.223815847703e-01
1.223915132584e-01
1.223934799920e-01
1.223935928817e-01
1.223931568379e-01
1.223992791264e-01
1.223944862203e-01
1.223955574328e-01
1.223900434763e-01
1.223865299568e-01
1.223959141308e-01
1.223941321216e-01
1.223903424593e-01
1.223935881183e-01
1.223991461249e-01
1.223931902975e-01
1.223893693399e-01
1.223938988620e-01
1.223938689508e-01
1.223913473740e-01
1.223846847429e-01
1.223966228139e-01
1.223985183951e-01
1.223994036005e-01
1.223889658220e-01
1.223950429432e-01
1.224027452848e-01
1.223938176899e-01
1.223983100438e-01
1.223944015358e-01
1.223938395905e-01
1.223985702188e-01
1.224001165681e-01
1.223948570098e-01
1.223987586942e-01
1.223922571673e-01
1.223973808419e-01
1.223305772674e-01
1.223960067628e-01
1.223974542140e-01
1.223884858377e-01
1.223904283854e-01
1.223938511146e-01
1.223945582227e-01
1.223915201252e-01
1.223891189152e-01
1.223916454125e-01
1.224025905604e-01
1.223859733426e-01
1.224007207413e-01
1.223937749629e-01
1.223880202899e-01
1.223988707809e-01
1.223920067671e-01
1.223888681526e-01
SCALARS 2-Ca double 1
LOOKUP_TABLE default
9.970358361137e-06
1.897387184351e-03
5.448378710642e-03
1.171435193104e-02
2.218224699828e-02
3.809185264304e-02
5.990159120113e-02
9.211022723815e-02
1.011054771665e-01
1.129589182518e-01
1.281977326490e-01
1.473997007592e-01
1.712694055825e-01
1.994696333752e-01
2.297038635896e-01
2.761627002285e-01
2.412261668319e-01
2.194763383821e-01
2.001842574564e-01
1.836553664583e-01
1.698362756087e-01
1.585314983135e-01
1.494568694423e-01
1.423068062827e-01
1.367929556125e-01
1.326230685122e-01
1.295157448504e-01
1.272799996565e-01
1.256688741744e-01
1.245552533749e-01
1.237913389414e-01
1.232876499779e-01
1.229531957517e-01
1.227216848920e-01
1.225965585443e-01
1.225220101436e-01
1.224618017394e-01
1.224331566982e-01
1.224245395641e-01
1.224099553533e-01
1.223995043784e-01
1.223985478012e-01
1.223921356456e-01
1.223846023018e-01
1.223889240346e-01
1.223957844420e-01
1.223816955677e-01
1.223915670302e-01
1.223935057237e-01
1.223936050259e-01
1.223931624920e-01
1.223992817238e-01
1.223944873980e-01
1.223955579599e-01
1.223900437092e-01
1.223865300585e-01
1.223959141746e-01
1.223941321403e-01
1.223903424671e-01
1.223935881216e-01
1.223991461263e-01
1.223931902981e-01
1.223893693401e-01
1.223938988621e-01
1.223938689508e-01
1.223913473740e-01
1.223846847429e-01
1.223966228139e-01
1.223985183951e-01
1.223994036005e-01
1.223889658220e-01
1.223950429432e-01
1.224027452848e-01
1.223938176899e-01
1.223983100438e-01
1.223944015358e-01
1.223938395905e-01
1.223985702188e-01
1.224001165681e-01
1.223948570098e-01
1.223987586942e-01
1.223922571673e-01
1.223973808419e-01
1.223305772674e-01
1.223960067628e-01
1.223974542140e-01
1.223884858377e-01
1.223904283854e-01
1.223938511146e-01
1.223945582227e-01
1.223915201252e-01
1.223891189152e-01
1.223916454125e-01
1.224025905604e-01
1.223859733426e-01
1.224007207413e-01
1.223937749629e-01
1.223880202899e-01
1.223988707809e-01
1.223920067671e-01
1.223888681526e-01
SCALARS 3-Cl double 1
LOOKUP_TABLE default
3.988143344455e+00
3.978285359615e+00
3.960479225402e+00
3.931350191166e+00
3.887010380340e+00
3.823312857562e+00
3.736223862990e+00
3.622282050049e+00
3.479084168866e+00
3.305740725930e+00
3.103196911941e+00
2.874374893934e+00
2.624087795386e+00
2.358724367774e+00
2.085740660898e+00
1.813028402179e+00
1.548249537350e+00
1.298225047373e+00
1.068458763638e+00
8.628415642189e-01
6.835537228261e-01
5.311497633671e-01
4.047866024213e-01
3.025423135410e-01
2.217705511733e-01
1.594426284412e-01
1.124420781049e-01
7.779156838485e-02
5.280612587262e-02
3.517763633308e-02
2.300261773500e-02
1.476839367941e-02
9.312791006395e-03
5.770412808184e-03
3.515440621553e-03
2.107642464960e-03
1.245362196495e-03
7.270177963421e-04
4.211029478277e-04
2.437891827845e-04
1.428199616271e-04
8.631552679398e-05
5.522967296178e-05
3.841195558703e-05
2.946181091836e-05
2.477492752358e-05
2.235913708044e-05
2.113315838317e-05
2.052041257570e-05
2.021871319869e-05
2.007233187193e-05
2.000232631978e-05
1.996931742620e-05
1.995396790685e-05
1.994692688128e-05
1.994374001476e-05
1.994231642766e-05
1.994168864231e-05
1.994141528775e-05
1.994129772660e-05
1.994124778558e-05
1.994122682019e-05
1.994121811613e-05
1.994121455183e-05
1.994121310565e-05
1.994121252432e-05
1.994121229164e-05
1.994121220656e-05
1.994121217186e-05
1.994121215684e-05
1.994121215081e-05
1.994121214772e-05
1.994121215357e-05
1.994121214754e-05
1.994121214976e-05
1.994121214690e-05
1.994121214703e-05
1.994121214893e-05
1.994121215266e-05
1.994121214803e-05
1.994121214779e-05
1.994121214948e-05
1.994121214818e-05
1.994121211994e-05
1.994121215086e-05
1.994121215103e-05
1.994121214359e-05
1.994121214636e-05
1.994121214514e-05
1.994121214956e-05
1.994121214539e-05
1.994121214780e-05
1.994121214802e-05
1.994121214972e-05
1.994121214475e-05
1.994121215221e-05
1.994121214662e-05
1.994121214563e-05
1.994121214958e-05
1.994121214599e-05
1.994121214367e-05
SCALARS 4-H double 1
LOOKUP_TABLE default
2.701109245634e-04
4.982282956261e-03
1.398686208971e-02
2.911418476515e-02
5.236179721966e-02
8.338742807593e-02
1.193871845156e-01
1.658264625815e-01
1.621008577958e-01
1.578595437307e-01
1.532734697115e-01
1.485891868641e-01
1.440214155693e-01
1.400343148724e-01
1.372627253829e-01
1.345369714177e-01
1.410374796706e-01
1.446739331073e-01
1.482534488598e-01
1.516250076575e-01
1.546714806829e-01
1.573349678914e-01
1.595605067617e-01
1.613482487457e-01
1.627436747748e-01
1.638006582665e-01
1.645511839639e-01
1.650849710394e-01
1.654366349928e-01
1.656954122820e-01
1.658404538338e-01
1.659580593655e-01
1.660212999103e-01
1.660452855742e-01
1.660857333423e-01
1.660946779920e-01
1.660858334060e-01
1.660913652984e-01
1.661094781476e-01
1.660923538264e-01
1.661146058498e-01
1.661163613012e-01
1.660898385256e-01
1.661044668879e-01
1.661005572128e-01
1.661138961280e-01
1.660986160700e-01
1.661123537359e-01
1.660947872004e-01
1.660942438347e-01
1.660978861284e-01
1.661005030241e-01
1.660912310235e-01
1.660992414437e-01
1.660928636679e-01
1.660986604036e-01
1.661070004115e-01
1.660960193617e-01
1.660931379460e-01
1.660982582506e-01
1.661036479591e-01
1.661025941704e-01
1.660977558595e-01
1.661050574166e-01
1.661165123895e-01
1.661113996664e-01
1.660962051029e-01
1.661052655783e-01
1.660991540571e-01
1.661080585122e-01
1.660975280083e-01
1.661123266611e-01
1.661103313174e-01
1.660952774261e-01
1.660952302159e-01
1.661115491931e-01
1.660934895864e-01
1.661160671325e-01
1.661063408121e-01
1.661024639538e-01
1.661035861541e-01
1.661091516676e-01
1.660955151595e-01
1.660718759397e-01
1.661036663410e-01
1.661043633224e-01
1.660993853664e-01
1.660965403674e-01
1.661083371121e-01
1.661078998700e-01
1.661096357904e-01
1.660906083429e-01
1.661095157722e-01
1.661139890494e-01
1.660955234508e-01
1.661160788250e-01
1.661043737966e-01
1.661013351149e-01
1.661049589310e-01
1.661117604282e-01
1.660995182248e-01
SCALARS 5-Mg double 1
LOOKUP_TABLE default
1.994071672227e+00
1.989773410890e+00
1.982130487531e+00
1.970027316383e+00
1.952412754647e+00
1.927751361869e+00
1.893693001545e+00
1.852150836550e+00
1.767424174277e+00
1.664261032188e+00
1.542837431319e+00
1.404300667535e+00
1.250611982931e+00
1.085757528326e+00
9.163250939712e-01
7.311126425379e-01
6.390982443666e-01
5.386382070069e-01
4.456802651874e-01
3.618070774208e-01
2.880751393132e-01
2.249251275207e-01
1.722024747535e-01
1.292706398398e-01
9.515470956654e-02
6.868467778833e-02
4.862215162058e-02
3.376084306366e-02
2.299698743230e-02
1.537074458475e-02
1.008297959467e-02
6.493479112192e-03
4.106914749770e-03
2.552159152393e-03
1.559341491741e-03
9.376713491213e-04
5.558195315822e-04
3.256584787442e-04
1.894746727875e-04
1.103472223651e-04
6.518395497057e-05
3.985335360995e-05
2.588805367560e-05
1.831729244167e-05
1.428036872220e-05
1.216240846797e-05
1.106877116803e-05
1.051280739587e-05
1.023447465872e-05
1.009721238110e-05
1.003051185243e-05
9.998565723104e-06
9.983481062617e-06
9.976456876725e-06
9.973230517187e-06
9.971768352250e-06
9.971114389487e-06
9.970825654633e-06
9.970699786748e-06
9.970645594369e-06
9.970622548242e-06
9.970612863253e-06
9.970608838103e-06
9.970607188394e-06
9.970606518372e-06
9.970606248738e-06
9.970606140647e-06
9.970606101307e-06
9.970606085182e-06
9.970606078142e-06
9.970606075303e-06
9.970606073820e-06
9.970606076769e-06
9.970606073763e-06
9.970606074877e-06
9.970606073449e-06
9.970606073516e-06
9.970606074467e-06
9.970606076329e-06
9.970606074017e-06
9.970606073897e-06
9.970606074738e-06
9.970606074092e-06
9.970606059971e-06
9.970606075430e-06
9.970606075516e-06
9.970606071795e-06
9.970606073181e-06
9.970606072569e-06
9.970606074782e-06
9.970606072694e-06
9.970606073898e-06
9.970606074011e-06
9.970606074860e-06
9.970606072376e-06
9.970606076105e-06
9.970606073308e-06
9.970606072816e-06
9.970606074790e-06
9.970606072995e-06
9.970606071836e-06
SCALARS 6-O double 1
LOOKUP_TABLE default
2.010568337471e-02
3.045980368759e-02
5.019674244145e-02
8.525311629293e-02
1.439418549246e-01
2.316118745700e-01
3.474182489786e-01
5.186772807849e-01
5.108607395782e-01
5.026263694365e-01
4.947089582631e-01
4.878922888583e-01
4.828449461566e-01
4.808752230201e-01
4.836547609342e-01
4.873716954645e-01
5.188528754901e-01
5.403298276209e-01
5.603590031503e-01
5.785177566215e-01
5.943882844489e-01
6.078204356438e-01
6.187730682062e-01
6.273892417599e-01
6.339904879187e-01
6.388962928560e-01
6.423782112930e-01
6.448892660009e-01
6.465428854830e-01
6.476888683246e-01
6.484168793731e-01
6.489180800863e-01
6.492156141145e-01
6.493418254265e-01
6.494921786590e-01
6.495830628603e-01
6.495846952418e-01
6.496118928273e-01
6.496591897194e-01
6.496434452300e-01
6.496437276855e-01
6.496530442626e-01
6.496266786831e-01
6.496146642011e-01
6.496273919569e-01
6.496555301269e-01
6.496060749560e-01
6.496427844579e-01
6.496399290071e-01
6.496400095676e-01
6.496405291833e-01
6.496602076699e-01
6.496411943829e-01
6.496484139449e-01
6.496286835022e-01
6.496210414475e-01
6.496533641087e-01
6.496425274701e-01
6.496297178310e-01
6.496420149589e-01
6.496613838735e-01
6.496429895034e-01
6.496291074244e-01
6.496463468170e-01
6.496519845668e-01
6.496418634402e-01
6.496142782507e-01
6.496546227858e-01
6.496572537637e-01
6.496643615750e-01
6.496277829950e-01
6.496534136743e-01
6.496755231259e-01
6.496412133276e-01
6.496546667842e-01
6.496511007258e-01
6.496403851366e-01
6.496658657354e-01
6.496656416804e-01
6.496479245300e-01
6.496601906916e-01
6.496434688836e-01
6.496520216492e-01
6.494397910086e-01
6.496519749968e-01
6.496566658375e-01
6.496272716763e-01
6.496316768444e-01
6.496478433942e-01
6.496497461350e-01
6.496414997803e-01
6.496247824365e-01
6.496418156563e-01
6.496768877534e-01
6.496178032689e-01
6.496723231976e-01
6.496456333159e-01
6.496268499288e-01
6.496612133786e-01
6.496440219904e-01
6.496284850729e-01
SCALARS 7-Sn double 1
LOOKUP_TABLE default
0.000000000000e+00
0.000000000000e+00
0.000000000000e+00
0.000000000000e+00
0.000000000000e+00
0.000000000000e+00
0.000000000000e+00
0.000000000000e+00
0.000000000000e+00
0.000000000000e+00
0.000000000000e+00
0.000000000000e+00
0.000000000000e+00
0.000000000000e+00
0.000000000000e+00
0.000000000000e+00
0.000000000000e+00
0.000000000000e+00
0.000000000000e+00
0.000000000000e+00
0.000000000000e+00
0.000000000000e+00
0.000000000000e+00
0.000000000000e+00
0.000000000000e+00
0.000000000000e+00
0.000000000000e+00
0.000000000000e+00
0.000000000000e+00
0.000000000000e+00
0.000000000000e+00
0.000000000000e+00
0.000000000000e+00
0.000000000000e+00
0.000000000000e+00
0.000000000000e+00
0.000000000000e+00
0.000000000000e+00
0.000000000000e+00
0.000000000000e+00
0.000000000000e+00
0.000000000000e+00
0.000000000000e+00
0.000000000000e+00
0.000000000000e+00
0.000000000000e+00
0.000000000000e+00
0.000000000000e+00
0.000000000000e+00
0.000000000000e+00
0.000000000000e+00
0.000000000000e+00
0.000000000000e+00
0.000000000000e+00
0.000000000000e+00
0.000000000000e+00
0.000000000000e+00
0.000000000000e+00
0.000000000000e+00
0.000000000000e+00
0.000000000000e+00
0.000000000000e+00
0.000000000000e+00
0.000000000000e+00
0.000000000000e+00
0.000000000000e+00
0.000000000000e+00
0.000000000000e+00
0.000000000000e+00
0.000000000000e+00
0.000000000000e+00
0.000000000000e+00
0.000000000000e+00
0.000000000000e+00
0.000000000000e+00
0.000000000000e+00
0.000000000000e+00
0.000000000000e+00
0.000000000000e+00
0.000000000000e+00
0.000000000000e+00
0.000000000000e+00
0.000000000000e+00
0.000000000000e+00
0.000000000000e+00
0.000000000000e+00
0.000000000000e+00
0.000000000000e+00
0.000000000000e+00
0.000000000000e+00
0.000000000000e+00
0.000000000000e+00
0.000000000000e+00
0.000000000000e+00
0.000000000000e+00
0.000000000000e+00
0.000000000000e+00
0.000000000000e+00
0.000000000000e+00
0.000000000000e+00
0.000000000000e+00
SCALARS 8-Zz double 1
LOOKUP_TABLE default
1.035722930241e-15
-7.789243314509e-16
-1.797851362918e-17
6.849536059830e-16
7.189806880747e-16
3.254938109438e-16
8.451006164334e-17
-3.921403711828e-17
-2.290807224023e-16
-5.427174326544e-16
5.645141599709e-16
-1.736478791296e-16
-5.620862423718e-16
1.672401246780e-16
-1.245170643481e-16
1.282835485747e-16
-2.068450435605e-16
-8.670010144030e-18
-2.825738507648e-16
-1.312338999412e-16
-8.587605071421e-17
-5.018705086314e-17
2.051653231617e-17
-2.122661691251e-17
-6.226808781727e-17
1.275159101321e-17
-3.187625536245e-18
-2.060268643786e-17
-3.464906254060e-17
-2.037688357008e-17
-2.345760842754e-18
-1.488471495497e-17
-3.697281031627e-17
-9.604384793837e-18
-1.624227129636e-17
2.266835049902e-17
-1.389769080353e-17
-1.170850920027e-17
-6.717393228548e-17
7.958946214084e-18
-1.480434811727e-17
3.839091361552e-17
6.693390533085e-18
4.806944159672e-18
-8.393980498416e-18
-3.135599169305e-17
2.088265746597e-17
-8.946430073374e-18
2.715736895554e-17
-1.333785296198e-17
3.175577064145e-19
-9.038063044555e-19
-2.913477396247e-18
-3.341679817910e-17
8.494396605689e-18
2.108238602766e-17
1.151466674242e-19
-6.114729474040e-18
8.201624865298e-18
3.809769736951e-17
-1.844120162205e-17
-1.526061224140e-18
2.273349600457e-18
-1.309371805222e-17
-1.963791766743e-17
2.478337343093e-17
-2.816497897846e-17
-2.433811512133e-17
-7.558860585560e-18
2.125159586204e-17
-2.720539277367e-17
-7.664856227650e-18
2.263177701550e-17
-6.686385474361e-18
-1.040337568682e-17
-4.069646799291e-17
-8.899678551050e-18
1.037241239022e-17
1.041684929848e-18
-3.612665376183e-18
3.247177393888e-17
-1.082185535124e-17
4.401095074963e-18
1.902364877555e-17
-9.236335412637e-18
-4.682903976157e-17
-1.379232357064e-17
1.082006191539e-17
2.015036018527e-18
1.681000318896e-18
1.577727002141e-17
-1.883855883414e-17
-2.585600625728e-17
2.654133756913e-17
-5.506791241816e-18
1.511542191541e-17
2.869840607234e-17
7.582133651277e-17
2.670837057268e-17
-1.156126501125e-18
7.004310992933e-18
SCALARS C double 1
LOOKUP_TABLE default
 3.190559220786e-06
 8.090022325410e-04
 2.348573868896e-03
 5.141331154291e-03
 9.948793622459e-03
 1.733986546464e-02
 2.735459993920e-02
 9.260475003365e-02
 1.142742763098e-01
 1.158683501574e-01
 1.142293268903e-01
 1.120939122585e-01
 1.098955605821e-01
 1.078411671708e-01
 1.060469033792e-01
 1.034601992348e-01
 1.033903901152e-01
 1.045902528398e-01
 1.053992820181e-01
 1.060884282922e-01
 1.066765595942e-01
 1.072101638154e-01
 1.076178369935e-01
 1.079568842475e-01
 1.082055975386e-01
 1.083527953236e-01
 1.084940557715e-01
 1.085335444246e-01
 1.085797164470e-01
 1.086677441735e-01
 1.086201898686e-01
 1.086273278876e-01
 1.086287392699e-01
 1.086487320456e-01
 1.086281042607e-01
 1.086339203714e-01
 1.086612716968e-01
 1.086335971122e-01
 1.086486140804e-01
 1.086343601971e-01
 1.086289254294e-01
 1.086513363227e-01
 1.086367678875e-01
 1.086435316460e-01
 1.086357038650e-01
 1.086191988780e-01
 1.086617986851e-01
 1.086606621746e-01
 1.086098225046e-01
 1.086603719948e-01
 1.085871151053e-01
 1.086720854852e-01
 1.086529539393e-01
 1.086130787312e-01
 1.086316930012e-01
 1.086524783796e-01
 1.086607831739e-01
 1.086265021331e-01
 1.086351678078e-01
 1.086584947663e-01
 1.086190825648e-01
 1.086622514317e-01
 1.086377684949e-01
 1.086143631011e-01
 1.086436812965e-01
 1.086531244816e-01
 1.086293659031e-01
 1.086496568633e-01
 1.086207979483e-01
 1.086638479693e-01
 1.086305529041e-01
 1.086324278109e-01
 1.086468529114e-01
 1.086411239312e-01
 1.086421797783e-01
 1.086259196211e-01
 1.086460943130e-01
 1.086397779459e-01
 1.086213153105e-01
 1.086616327209e-01
 1.086222761121e-01
 1.086524947590e-01
 1.086370413569e-01
 1.086332400234e-01
 1.086577408068e-01
 1.086398038300e-01
 1.086307091730e-01
 1.086371956563e-01
 1.086430008582e-01
 1.086372256083e-01
 1.086378996582e-01
 1.086420903664e-01
 1.086231824795e-01
 1.086875248036e-01
 1.086199340075e-01
 1.086205909898e-01
 1.086429710737e-01
 1.086384141789e-01
 1.086249301227e-01
 1.086989111507e-01
 1.085444392199e-01
SCALARS Ca double 1
LOOKUP_TABLE default
 3.190559220786e-06
 6.071671915429e-04
 1.743490642019e-03
 3.748612945937e-03
 7.098357532473e-03
 1.218945894686e-02
 1.916861313205e-02
 5.447844473366e-02
 6.885285761485e-02
 7.418505866458e-02
 7.902801586804e-02
 8.489273041835e-02
 9.217991345256e-02
 1.008123751555e-01
 1.100231979591e-01
 1.375137027397e-01
 1.465987660709e-01
 1.399419414507e-01
 1.337349251262e-01
 1.283647556567e-01
 1.238610659806e-01
 1.202180513609e-01
 1.172788764056e-01
 1.149970314029e-01
 1.132393656034e-01
 1.118845098262e-01
 1.109256934358e-01
 1.101767213256e-01
 1.096696577813e-01
 1.093775258734e-01
 1.090740540585e-01
 1.089123568210e-01
 1.088045726548e-01
 1.087553068893e-01
 1.086915853181e-01
 1.086710882376e-01
 1.086826673425e-01
 1.086457092150e-01
 1.086553586392e-01
 1.086380553455e-01
 1.086309177525e-01
 1.086523937311e-01
 1.086373204565e-01
 1.086438160246e-01
 1.086358480364e-01
 1.086192708955e-01
 1.086618341402e-01
 1.086606793816e-01
 1.086098307387e-01
 1.086603758810e-01
 1.085871169146e-01
 1.086720863164e-01
 1.086529543161e-01
 1.086130788998e-01
 1.086316930757e-01
 1.086524784122e-01
 1.086607831880e-01
 1.086265021390e-01
 1.086351678103e-01
 1.086584947674e-01
 1.086190825652e-01
 1.086622514319e-01
 1.086377684950e-01
 1.086143631012e-01
 1.086436812965e-01
 1.086531244816e-01
 1.086293659031e-01
 1.086496568633e-01
 1.086207979483e-01
 1.086638479693e-01
 1.086305529041e-01
 1.086324278109e-01
 1.086468529114e-01
 1.086411239312e-01
 1.086421797783e-01
 1.086259196211e-01
 1.086460943130e-01
 1.086397779459e-01
 1.086213153105e-01
 1.086616327209e-01
 1.086222761121e-01
 1.086524947590e-01
 1.086370413569e-01
 1.086332400234e-01
 1.086577408068e-01
 1.086398038300e-01
 1.086307091730e-01
 1.086371956563e-01
 1.086430008582e-01
 1.086372256083e-01
 1.086378996582e-01
 1.086420903664e-01
 1.086231824795e-01
 1.086875248036e-01
 1.086199340075e-01
 1.086205909898e-01
 1.086429710737e-01
 1.086384141789e-01
 1.086249301227e-01
 1.086989111507e-01
 1.085444392199e-01
SCALARS Cl double 1
LOOKUP_TABLE default
 1.276223688314e+00
 1.273058218626e+00
 1.267360224778e+00
 1.258038883275e+00
 1.243850066868e+00
 1.223466749044e+00
 1.195598119655e+00
 1.159130710084e+00
 1.113304794839e+00
 1.057834672073e+00
 9.930208028923e-01
 9.197979718159e-01
 8.397063332554e-01
 7.547902740043e-01
 6.674357264769e-01
 5.801678453507e-01
 4.954385697608e-01
 4.154309254939e-01
 3.419059088775e-01
 2.761085799729e-01
 2.187366225141e-01
 1.699674828039e-01
 1.295313768578e-01
 9.681328919577e-02
 7.096639223055e-02
 5.102150883034e-02
 3.598137156605e-02
 2.489323734290e-02
 1.689791645174e-02
 1.125681434676e-02
 7.360818579294e-03
 4.725873717530e-03
 2.980085391358e-03
 1.846527303223e-03
 1.124938080529e-03
 6.744438388516e-04
 3.985148674588e-04
 2.326450911183e-04
 1.347525934306e-04
 7.801233605205e-05
 4.570226914508e-05
 2.762089684157e-05
 1.767344947572e-05
 1.229179387144e-05
 9.427755024295e-06
 7.927956247846e-06
 7.154905271934e-06
 6.762593111696e-06
 6.566515001776e-06
 6.469971413681e-06
 6.423129565026e-06
 6.400727785027e-06
 6.390164979516e-06
 6.385253175719e-06
 6.383000038364e-06
 6.381980227587e-06
 6.381524676992e-06
 6.381323811032e-06
 6.381236330525e-06
 6.381198694638e-06
 6.381182743891e-06
 6.381176001786e-06
 6.381173233625e-06
 6.381172111358e-06
 6.381171626982e-06
 6.381171433406e-06
 6.381171374878e-06
 6.381171335522e-06
 6.381171346117e-06
 6.381171309814e-06
 6.381171329947e-06
 6.381171329007e-06
 6.381171322071e-06
 6.381171322256e-06
 6.381171323248e-06
 6.381171333388e-06
 6.381171318440e-06
 6.381171324815e-06
 6.381171339969e-06
 6.381171307556e-06
 6.381171337385e-06
 6.381171314135e-06
 6.381171326310e-06
 6.381171304328e-06
 6.381171311597e-06
 6.381171325204e-06
 6.381171327408e-06
 6.381171323975e-06
 6.381171320114e-06
 6.381171325951e-06
 6.381171323402e-06
 6.381171320520e-06
 6.381171335114e-06
 6.381171290848e-06
 6.381171335124e-06
 6.381171340502e-06
 6.381171320591e-06
 6.381171322277e-06
 6.381171336028e-06
 6.381171278774e-06
 6.381171391063e-06
SCALARS H double 1
LOOKUP_TABLE default
 3.542055048139e+04
 3.542025067306e+04
 3.542025574637e+04
 3.542026461712e+04
 3.542027939133e+04
 3.542030230575e+04
 3.542033490022e+04
 3.542020467825e+04
 3.542014854465e+04
 3.542016891387e+04
 3.542020592140e+04
 3.542024961804e+04
 3.542029786644e+04
 3.542034949205e+04
 3.542040387016e+04
 3.542044566008e+04
 3.542049251552e+04
 3.542054770018e+04
 3.542059987551e+04
 3.542064692307e+04
 3.542068809423e+04
 3.542072298448e+04
 3.542075200304e+04
 3.542077534181e+04
 3.542079376346e+04
 3.542080806512e+04
 3.542081860914e+04
 3.542082662305e+04
 3.542083223761e+04
 3.542083595382e+04
 3.542083893352e+04
 3.542084078534e+04
 3.542084200763e+04
 3.542084268358e+04
 3.542084328808e+04
 3.542084359366e+04
 3.542084365199e+04
 3.542084388109e+04
 3.542084390332e+04
 3.542084399180e+04
 3.542084402410e+04
 3.542084394902e+04
 3.542084400739e+04
 3.542084396839e+04
 3.542084401270e+04
 3.542084409492e+04
 3.542084389323e+04
 3.542084391788e+04
 3.542084413144e+04
 3.542084392498e+04
 3.542084422334e+04
 3.542084388854e+04