# vtk DataFile Version 3.0
Unstructured Grid from OpenGeoSys
ASCII
DATASET UNSTRUCTURED_GRID
FIELD TimesAndCycles 2
TIME 1 1 double
2.000000000000e+03
CYLCE 1 1 long
20
POINTS 101 double
0.000000000000e+00 0.000000000000e+00 0.000000000000e+00
5.000000000000e-03 0.000000000000e+00 0.000000000000e+00
1.000000000000e-02 0.000000000000e+00 0.000000000000e+00
1.500000000000e-02 0.000000000000e+00 0.000000000000e+00
2.000000000000e-02 0.000000000000e+00 0.000000000000e+00
2.500000000000e-02 0.000000000000e+00 0.000000000000e+00
3.000000000000e-02 0.000000000000e+00 0.000000000000e+00
3.500000000000e-02 0.000000000000e+00 0.000000000000e+00
4.000000000000e-02 0.000000000000e+00 0.000000000000e+00
4.500000000000e-02 0.000000000000e+00 0.000000000000e+00
5.000000000000e-02 0.000000000000e+00 0.000000000000e+00
5.500000000000e-02 0.000000000000e+00 0.000000000000e+00
6.000000000000e-02 0.000000000000e+00 0.000000000000e+00
6.500000000000e-02 0.000000000000e+00 0.000000000000e+00
7.000000000000e-02 0.000000000000e+00 0.000000000000e+00
7.500000000000e-02 0.000000000000e+00 0.000000000000e+00
8.000000000000e-02 0.000000000000e+00 0.000000000000e+00
8.500000000000e-02 0.000000000000e+00 0.000000000000e+00
9.000000000000e-02 0.000000000000e+00 0.000000000000e+00
9.500000000000e-02 0.000000000000e+00 0.000000000000e+00
1.000000000000e-01 0.000000000000e+00 0.000000000000e+00
1.050000000000e-01 0.000000000000e+00 0.000000000000e+00
1.100000000000e-01 0.000000000000e+00 0.000000000000e+00
1.150000000000e-01 0.000000000000e+00 0.000000000000e+00
1.200000000000e-01 0.000000000000e+00 0.000000000000e+00
1.250000000000e-01 0.000000000000e+00 0.000000000000e+00
1.300000000000e-01 0.000000000000e+00 0.000000000000e+00
1.350000000000e-01 0.000000000000e+00 0.000000000000e+00
1.400000000000e-01 0.000000000000e+00 0.000000000000e+00
1.450000000000e-01 0.000000000000e+00 0.000000000000e+00
1.500000000000e-01 0.000000000000e+00 0.000000000000e+00
1.550000000000e-01 0.000000000000e+00 0.000000000000e+00
1.600000000000e-01 0.000000000000e+00 0.000000000000e+00
1.650000000000e-01 0.000000000000e+00 0.000000000000e+00
1.700000000000e-01 0.000000000000e+00 0.000000000000e+00
1.750000000000e-01 0.000000000000e+00 0.000000000000e+00
1.800000000000e-01 0.000000000000e+00 0.000000000000e+00
1.850000000000e-01 0.000000000000e+00 0.000000000000e+00
1.900000000000e-01 0.000000000000e+00 0.000000000000e+00
1.950000000000e-01 0.000000000000e+00 0.000000000000e+00
2.000000000000e-01 0.000000000000e+00 0.000000000000e+00
2.050000000000e-01 0.000000000000e+00 0.000000000000e+00
2.100000000000e-01 0.000000000000e+00 0.000000000000e+00
2.150000000000e-01 0.000000000000e+00 0.000000000000e+00
2.200000000000e-01 0.000000000000e+00 0.000000000000e+00
2.250000000000e-01 0.000000000000e+00 0.000000000000e+00
2.300000000000e-01 0.000000000000e+00 0.000000000000e+00
2.350000000000e-01 0.000000000000e+00 0.000000000000e+00
2.400000000000e-01 0.000000000000e+00 0.000000000000e+00
2.450000000000e-01 0.000000000000e+00 0.000000000000e+00
2.500000000000e-01 0.000000000000e+00 0.000000000000e+00
2.550000000000e-01 0.000000000000e+00 0.000000000000e+00
2.600000000000e-01 0.000000000000e+00 0.000000000000e+00
2.650000000000e-01 0.000000000000e+00 0.000000000000e+00
2.700000000000e-01 0.000000000000e+00 0.000000000000e+00
2.750000000000e-01 0.000000000000e+00 0.000000000000e+00
2.800000000000e-01 0.000000000000e+00 0.000000000000e+00
2.850000000000e-01 0.000000000000e+00 0.000000000000e+00
2.900000000000e-01 0.000000000000e+00 0.000000000000e+00
2.950000000000e-01 0.000000000000e+00 0.000000000000e+00
3.000000000000e-01 0.000000000000e+00 0.000000000000e+00
3.050000000000e-01 0.000000000000e+00 0.000000000000e+00
3.100000000000e-01 0.000000000000e+00 0.000000000000e+00
3.150000000000e-01 0.000000000000e+00 0.000000000000e+00
3.200000000000e-01 0.000000000000e+00 0.000000000000e+00
3.250000000000e-01 0.000000000000e+00 0.000000000000e+00
3.300000000000e-01 0.000000000000e+00 0.000000000000e+00
3.350000000000e-01 0.000000000000e+00 0.000000000000e+00
3.400000000000e-01 0.000000000000e+00 0.000000000000e+00
3.450000000000e-01 0.000000000000e+00 0.000000000000e+00
3.500000000000e-01 0.000000000000e+00 0.000000000000e+00
3.550000000000e-01 0.000000000000e+00 0.000000000000e+00
3.600000000000e-01 0.000000000000e+00 0.000000000000e+00
3.650000000000e-01 0.000000000000e+00 0.000000000000e+00
3.700000000000e-01 0.000000000000e+00 0.000000000000e+00
3.750000000000e-01 0.000000000000e+00 0.000000000000e+00
3.800000000000e-01 0.000000000000e+00 0.000000000000e+00
3.850000000000e-01 0.000000000000e+00 0.000000000000e+00
3.900000000000e-01 0.000000000000e+00 0.000000000000e+00
3.950000000000e-01 0.000000000000e+00 0.000000000000e+00
4.000000000000e-01 0.000000000000e+00 0.000000000000e+00
4.050000000000e-01 0.000000000000e+00 0.000000000000e+00
4.100000000000e-01 0.000000000000e+00 0.000000000000e+00
4.150000000000e-01 0.000000000000e+00 0.000000000000e+00
4.200000000000e-01 0.000000000000e+00 0.000000000000e+00
4.250000000000e-01 0.000000000000e+00 0.000000000000e+00
4.300000000000e-01 0.000000000000e+00 0.000000000000e+00
4.350000000000e-01 0.000000000000e+00 0.000000000000e+00
4.400000000000e-01 0.000000000000e+00 0.000000000000e+00
4.450000000000e-01 0.000000000000e+00 0.000000000000e+00
4.500000000000e-01 0.000000000000e+00 0.000000000000e+00
4.550000000000e-01 0.000000000000e+00 0.000000000000e+00
4.600000000000e-01 0.000000000000e+00 0.000000000000e+00
4.650000000000e-01 0.000000000000e+00 0.000000000000e+00
4.700000000000e-01 0.000000000000e+00 0.000000000000e+00
4.750000000000e-01 0.000000000000e+00 0.000000000000e+00
4.800000000000e-01 0.000000000000e+00 0.000000000000e+00
4.850000000000e-01 0.000000000000e+00 0.000000000000e+00
4.900000000000e-01 0.000000000000e+00 0.000000000000e+00
4.950000000000e-01 0.000000000000e+00 0.000000000000e+00
5.000000000000e-01 0.000000000000e+00 0.000000000000e+00
CELLS 100 300
2 0 1
2 2 3
2 4 5
2 6 7
2 8 9
2 10 11
2 12 13
2 14 15
2 16 17
2 18 19
2 20 21
2 22 23
2 24 25
2 26 27
2 28 29
2 30 31
2 32 33
2 34 35
2 36 37
2 38 39
2 40 41
2 42 43
2 44 45
2 46 47
2 48 49
2 50 51
2 52 53
2 54 55
2 56 57
2 58 59
2 60 61
2 62 63
2 64 65
2 66 67
2 68 69
2 70 71
2 72 73
2 74 75
2 76 77
2 78 79
2 80 81
2 82 83
2 84 85
2 86 87
2 88 89
2 90 91
2 92 93
2 94 95
2 96 97
2 98 99
2 1 2
2 3 4
2 5 6
2 7 8
2 9 10
2 11 12
2 13 14
2 15 16
2 17 18
2 19 20
2 21 22
2 23 24
2 25 26
2 27 28
2 29 30
2 31 32
2 33 34
2 35 36
2 37 38
2 39 40
2 41 42
2 43 44
2 45 46
2 47 48
2 49 50
2 51 52
2 53 54
2 55 56
2 57 58
2 59 60
2 61 62
2 63 64
2 65 66
2 67 68
2 69 70
2 71 72
2 73 74
2 75 76
2 77 78
2 79 80
2 81 82
2 83 84
2 85 86
2 87 88
2 89 90
2 91 92
2 93 94
2 95 96
2 97 98
2 99 100

CELL_TYPES 100
3
3
3
3
3
3
3
3
3
3
3
3
3
3
3
3
3
3
3
3
3
3
3
3
3
3
3
3
3
3
3
3
3
3
3
3
3
3
3
3
3
3
3
3
3
3
3
3
3
3
3
3
3
3
3
3
3
3
3
3
3
3
3
3
3
3
3
3
3
3
3
3
3
3
3
3
3
3
3
3
3
3
3
3
3
3
3
3
3
3
3
3
3
3
3
3
3
3
3
3

POINT_DATA 101
SCALARS 1-C double 1
LOOKUP_TABLE default
9.970358361137e-06
2.584032890180e-02
6.381673436846e-02
1.226849717359e-01
1.150927262649e-01
1.113828767741e-01
1.110099899194e-01
1.194344657242e-01
1.214669894358e-01
1.225117757635e-01
1.228599658950e-01
1.228593700937e-01
1.227218953684e-01
1.225863492684e-01
1.224958630543e-01
1.224385576068e-01
1.224237912902e-01
1.224042199397e-01
1.223901620196e-01
1.223956722203e-01
1.224020584983e-01
1.223874020274e-01
1.223845642437e-01
1.224012232880e-01
1.223957430572e-01
1.223936222529e-01
1.224035194218e-01
1.223922509154e-01
1.223940618308e-01
1.223874248734e-01
1.223968377274e-01
1.223941806557e-01
1.223993695681e-01
1.223964069767e-01
1.223974112175e-01
1.223938173211e-01
1.223834318678e-01
1.224000288342e-01
1.223816277177e-01
1.223935326880e-01
1.223922905699e-01
1.223147107124e-01
1.223912464801e-01
1.223889362752e-01
1.223919312390e-01
1.223919150891e-01
1.223885089559e-01
1.223898093478e-01
1.223889181511e-01
1.223941090214e-01
1.223938098405e-01
1.223878502052e-01
1.223984534855e-01
1.223938118812e-01
1.223929736695e-01
1.223984908349e-01
1.224035046812e-01
1.223873297468e-01
1.223941218710e-01
1.223964849943e-01
1.223866873259e-01
1.223864035675e-01
1.223939001318e-01
1.223975018151e-01
1.223938853551e-01
1.223978614952e-01
1.223932946567e-01
1.223825057446e-01
1.223989876478e-01
1.223954612780e-01
1.223931945294e-01
1.223932084841e-01
1.223908719735e-01
1.223857174662e-01
1.224065403733e-01
1.223888988292e-01
1.223920011442e-01
1.223984043335e-01
1.224026219199e-01
1.223985050527e-01
1.223940471713e-01
1.224007825614e-01
1.223809858304e-01
1.223940292156e-01
1.224024406890e-01
1.223933091740e-01
1.223905594260e-01
1.223939103091e-01
1.224007053425e-01
1.223894599282e-01
1.223835968903e-01
1.224070721763e-01
1.223939058918e-01
1.223985286364e-01
1.223919672651e-01
1.223944352658e-01
1.223933361385e-01
1.224017430807e-01
1.223940592122e-01
1.223900097807e-01
1.223852905632e-01
SCALARS 2-Ca double 1
LOOKUP_TABLE default
9.970358361137e-06
2.424122240561e-02
6.177257513082e-02
1.177663294859e-01
1.476711272286e-01
1.776382454723e-01
2.171803142903e-01
1.754050108585e-01
1.553788063767e-01
1.418668047641e-01
1.332747697006e-01
1.281703052630e-01
1.252971138702e-01
1.237768208665e-01
1.230218316308e-01
1.226611903480e-01
1.225142868546e-01
1.224396238951e-01
1.224035215667e-01
1.224005444469e-01
1.224037791425e-01
1.223879915050e-01
1.223847604871e-01
1.224012868750e-01
1.223957631407e-01
1.223936284447e-01
1.224035212877e-01
1.223922514656e-01
1.223940619898e-01
1.223874249184e-01
1.223968377399e-01
1.223941806592e-01
1.223993695690e-01
1.223964069770e-01
1.223974112175e-01
1.223938173211e-01
1.223834318678e-01
1.224000288342e-01
1.223816277177e-01
1.223935326880e-01
1.223922905699e-01
1.223147107124e-01
1.223912464801e-01
1.223889362752e-01
1.223919312390e-01
1.223919150891e-01
1.223885089559e-01
1.223898093478e-01
1.223889181511e-01
1.223941090214e-01
1.223938098405e-01
1.223878502052e-01
1.223984534855e-01
1.223938118812e-01
1.223929736695e-01
1.223984908349e-01
1.224035046812e-01
1.223873297468e-01
1.223941218710e-01
1.223964849943e-01
1.223866873259e-01
1.223864035675e-01
1.223939001318e-01
1.223975018151e-01
1.223938853551e-01
1.223978614952e-01
1.223932946567e-01
1.223825057446e-01
1.223989876478e-01
1.223954612780e-01
1.223931945294e-01
1.223932084841e-01
1.223908719735e-01
1.223857174662e-01
1.224065403733e-01
1.223888988292e-01
1.223920011442e-01
1.223984043335e-01
1.224026219199e-01
1.223985050527e-01
1.223940471713e-01
1.224007825614e-01
1.223809858304e-01
1.223940292156e-01
1.224024406890e-01
1.223933091740e-01
1.223905594260e-01
1.223939103091e-01
1.224007053425e-01
1.223894599282e-01
1.223835968903e-01
1.224070721763e-01
1.223939058918e-01
1.223985286364e-01
1.223919672651e-01
1.223944352658e-01
1.223933361385e-01
1.224017430807e-01
1.223940592122e-01
1.223900097807e-01
1.223852905632e-01
SCALARS 3-Cl double 1
LOOKUP_TABLE default
3.988143344455e+00
3.771121242135e+00
3.425322074317e+00
2.963689537271e+00
2.427561374638e+00
1.874825445242e+00
1.362286487491e+00
9.306987754440e-01
5.981211877389e-01
3.620499633519e-01
2.068008559234e-01
1.117146993730e-01
5.721638473986e-02
2.785725367591e-02
1.293013621895e-02
5.740038455741e-03
2.447291951902e-03
1.008897745646e-03
4.076898169455e-04
1.665687150800e-04
7.353136448749e-05
3.890908554726e-05
2.645485619945e-05
2.211520388524e-05
2.064757516940e-05
2.016497867255e-05
2.001042328426e-05
1.996214099025e-05
1.994740710575e-05
1.994300917576e-05
1.994172354995e-05
1.994135506614e-05
1.994125140599e-05
1.994122275612e-05
1.994121497279e-05
1.994121288885e-05
1.994121233384e-05
1.994121219865e-05
1.994121215602e-05
1.994121215111e-05
1.994121214434e-05
1.994121211337e-05
1.994121214484e-05
1.994121214702e-05
1.994121214714e-05
1.994121214599e-05
1.994121215834e-05
1.994121214219e-05
1.994121214120e-05
1.994121214612e-05
1.994121214632e-05
1.994121214489e-05
1.994121214914e-05
1.994121214853e-05
1.994121214652e-05
1.994121214999e-05
1.994121215261e-05
1.994121214632e-05
1.994121214777e-05
1.994121215102e-05
1.994121214563e-05
1.994121214552e-05
1.994121214722e-05
1.994121214493e-05
1.994121214876e-05
1.994121215014e-05
1.994121215099e-05
1.994121214330e-05
1.994121215072e-05
1.994121214580e-05
1.994121215106e-05
1.994121214626e-05
1.994121214664e-05
1.994121214279e-05
1.994121215477e-05
1.994121214579e-05
1.994121214439e-05
1.994121214918e-05
1.994121215114e-05
1.994121214944e-05
1.994121214703e-05
1.994121215358e-05
1.994121214134e-05
1.994121214609e-05
1.994121215383e-05
1.994121214750e-05
1.994121214754e-05
1.994121214638e-05
1.994121215234e-05
1.994121214474e-05
1.994121214284e-05
1.994121215383e-05
1.994121214787e-05
1.994121215185e-05
1.994121214558e-05
1.994121214918e-05
1.994121214655e-05
1.994121215116e-05
1.994121214917e-05
1.994121214560e-05
1.994121214194e-05
SCALARS 4-H double 1
LOOKUP_TABLE default
2.701109245634e-04
4.459308048810e-02
9.517410828910e-02
1.566646963788e-01
1.497799711833e-01
1.465970431988e-01
1.465497484483e-01
1.568851677548e-01
1.606519324501e-01
1.632253866133e-01
1.647413399084e-01
1.655401215687e-01
1.658879280215e-01
1.660258091869e-01
1.660904033058e-01
1.661020849309e-01
1.660968116243e-01
1.661011421095e-01
1.660972565982e-01
1.661152901033e-01
1.661095558835e-01
1.660978096450e-01
1.660973087977e-01
1.661134979946e-01
1.661147113803e-01
1.661072754036e-01
1.661028465730e-01
1.660913149055e-01
1.661139819017e-01
1.660954623294e-01
1.660947233940e-01
1.661135038365e-01
1.661085482734e-01
1.660937126249e-01
1.660975553927e-01
1.660908616000e-01
1.660954042276e-01
1.661037338973e-01
1.661020096067e-01
1.661006414128e-01
1.661039848913e-01
1.660636204116e-01
1.661139604016e-01
1.661088777411e-01
1.660976948846e-01
1.660925500258e-01
1.660992125008e-01
1.660933940822e-01
1.660962071992e-01
1.661053229521e-01
1.661129085996e-01
1.660925207554e-01
1.661075095262e-01
1.661105251088e-01
1.660897990030e-01
1.661058088694e-01
1.661125087770e-01
1.660971977633e-01
1.661061423879e-01
1.661154321787e-01
1.660917057659e-01
1.660912557915e-01
1.661075971401e-01
1.661091502571e-01
1.660947588386e-01
1.661135325502e-01
1.660921415507e-01
1.661031402848e-01
1.661045160454e-01
1.661046756071e-01
1.661039357165e-01
1.660916766451e-01
1.660934346965e-01
1.660986529520e-01
1.661075426053e-01
1.661015841334e-01
1.660944342660e-01
1.661086545214e-01
1.661029355216e-01
1.661029479913e-01
1.661065353742e-01
1.661108148457e-01
1.660996784167e-01
1.661020979720e-01
1.661114472391e-01
1.661105986201e-01
1.661081888620e-01
1.661073443259e-01
1.661119231862e-01
1.661005658120e-01
1.660995328185e-01
1.661065428924e-01
1.661164478948e-01
1.661018106251e-01
1.660927597067e-01
1.661046373822e-01
1.661057787156e-01
1.661076666172e-01
1.660897744088e-01
1.661075051368e-01
1.660956395435e-01
SCALARS 5-Mg double 1
LOOKUP_TABLE default
1.994071672227e+00
1.887159727564e+00
1.714705196396e+00
1.486763410885e+00
1.181202286355e+00
8.711573539230e-01
5.749729193744e-01
4.093788425877e-01
2.651487769285e-01
1.616699526753e-01
9.298562415613e-02
5.054641451720e-02
2.603297386816e-02
1.273815523981e-02
5.939099532990e-03
2.647386486666e-03
1.133150411565e-03
4.690449173114e-04
1.904853614205e-04
7.841213090669e-05
3.504503804124e-05
1.886506516893e-05
1.303118475303e-05
1.099401494605e-05
1.030370410821e-05
1.007629753281e-05
1.000334580164e-05
9.980520263935e-06
9.973544578063e-06
9.971459538413e-06
9.970849241728e-06
9.970674106538e-06
9.970624781613e-06
9.970611134183e-06
9.970607422808e-06
9.970606428080e-06
9.970606162777e-06
9.970606098290e-06
9.970606077755e-06
9.970606075492e-06
9.970606072153e-06
9.970606056681e-06
9.970606072420e-06
9.970606073508e-06
9.970606073570e-06
9.970606072997e-06
9.970606079169e-06
9.970606071097e-06
9.970606070599e-06
9.970606073060e-06
9.970606073162e-06
9.970606072443e-06
9.970606074570e-06
9.970606074263e-06
9.970606073262e-06
9.970606074994e-06
9.970606076303e-06
9.970606073161e-06
9.970606073883e-06
9.970606075509e-06
9.970606072816e-06
9.970606072762e-06
9.970606073611e-06
9.970606072465e-06
9.970606074382e-06
9.970606075072e-06
9.970606075493e-06
9.970606071650e-06
9.970606075358e-06
9.970606072900e-06
9.970606075532e-06
9.970606073129e-06
9.970606073319e-06
9.970606071394e-06
9.970606077384e-06
9.970606072893e-06
9.970606072195e-06
9.970606074590e-06
9.970606075568e-06
9.970606074721e-06
9.970606073515e-06
9.970606076792e-06
9.970606070671e-06
9.970606073044e-06
9.970606076915e-06
9.970606073749e-06
9.970606073769e-06
9.970606073190e-06
9.970606076172e-06
9.970606072372e-06
9.970606071420e-06
9.970606076914e-06
9.970606073933e-06
9.970606075925e-06
9.970606072789e-06
9.970606074590e-06
9.970606073274e-06
9.970606075582e-06
9.970606074583e-06
9.970606072798e-06
9.970606070971e-06
SCALARS 6-O double 1
LOOKUP_TABLE default
2.010568337471e-02
1.295241746364e-01
2.843047942094e-01
5.124283371758e-01
5.103351745333e-01
5.224877343434e-01
5.444103665590e-01
5.942738774815e-01
6.172217675717e-01
6.322669060107e-01
6.410563373024e-01
6.457333021391e-01
6.479475230419e-01
6.489311784125e-01
6.493638452661e-01
6.495213809979e-01
6.496226472353e-01
6.496308393667e-01
6.496137830813e-01
6.496501833515e-01
6.496706627768e-01
6.496223785833e-01
6.496141753961e-01
6.496724425502e-01
6.496566746091e-01
6.496466158872e-01
6.496741000133e-01
6.496345307656e-01
6.496512976575e-01
6.496221272137e-01
6.496499964285e-01
6.496514154138e-01
6.496645043601e-01
6.496481987522e-01
6.496531328800e-01
6.496390042954e-01
6.496101192051e-01
6.496640750357e-01
6.496080094325e-01
6.496430403136e-01
6.496409856518e-01
6.493880635087e-01
6.496428410954e-01
6.496333691777e-01
6.496367626561e-01
6.496341417478e-01
6.496272547233e-01
6.496282465246e-01
6.496269795016e-01
6.496471100244e-01
6.496500053056e-01
6.496219324801e-01
6.496612367260e-01
6.496488197236e-01
6.496359420309e-01
6.496604984741e-01
6.496788900308e-01
6.496227096818e-01
6.496475583320e-01
6.496592926526e-01
6.496180363494e-01
6.496169601068e-01
6.496476205068e-01
6.496592020688e-01
6.496411570198e-01
6.496624723056e-01
6.496380763185e-01
6.496112088816e-01
6.496613425229e-01
6.496508431471e-01
6.496436729859e-01
6.496375853127e-01
6.496314547759e-01
6.496186003646e-01
6.496855140027e-01
6.496296100427e-01
6.496353420444e-01
6.496616617586e-01
6.496714550909e-01
6.496591106766e-01
6.496475307128e-01
6.496698766872e-01
6.496049181685e-01
6.496452581516e-01
6.496751673037e-01
6.496473483533e-01
6.496378942312e-01
6.496475246107e-01
6.496701992347e-01
6.496307842049e-01
6.496126785840e-01
6.496866096131e-01
6.496520631493e-01
6.496586127735e-01
6.496344031637e-01
6.496477459989e-01
6.496450192558e-01
6.496711841144e-01
6.496391863741e-01
6.496359033642e-01
6.496158129094e-01
SCALARS 7-Sn double 1
LOOKUP_TABLE default
0.000000000000e+00
0.000000000000e+00
0.000000000000e+00
0.000000000000e+00
0.000000000000e+00
0.000000000000e+00
0.000000000000e+00
0.000000000000e+00
0.000000000000e+00
0.000000000000e+00
0.000000000000e+00
0.000000000000e+00
0.000000000000e+00
0.000000000000e+00
0.000000000000e+00
0.000000000000e+00
0.000000000000e+00
0.000000000000e+00
0.000000000000e+00
0.000000000000e+00
0.000000000000e+00
0.000000000000e+00
0.000000000000e+00
0.000000000000e+00
0.000000000000e+00
0.000000000000e+00
0.000000000000e+00
0.000000000000e+00
0.000000000000e+00
0.000000000000e+00
0.000000000000e+00
0.000000000000e+00
0.000000000000e+00
0.000000000000e+00
0.000000000000e+00
0.000000000000e+00
0.000000000000e+00
0.000000000000e+00
0.000000000000e+00
0.000000000000e+00
0.000000000000e+00
0.000000000000e+00
0.000000000000e+00
0.000000000000e+00
0.000000000000e+00
0.000000000000e+00
0.000000000000e+00
0.000000000000e+00
0.000000000000e+00
0.000000000000e+00
0.000000000000e+00
0.000000000000e+00
0.000000000000e+00
0.000000000000e+00
0.000000000000e+00
0.000000000000e+00
0.000000000000e+00
0.000000000000e+00
0.000000000000e+00
0.000000000000e+00
0.000000000000e+00
0.000000000000e+00
0.000000000000e+00
0.000000000000e+00
0.000000000000e+00
0.000000000000e+00
0.000000000000e+00
0.000000000000e+00
0.000000000000e+00
0.000000000000e+00
0.000000000000e+00
0.000000000000e+00
0.000000000000e+00
0.000000000000e+00
0.000000000000e+00
0.000000000000e+00
0.000000000000e+00
0.000000000000e+00
0.000000000000e+00
0.000000000000e+00
0.000000000000e+00
0.000000000000e+00
0.000000000000e+00
0.000000000000e+00
0.000000000000e+00
0.000000000000e+00
0.000000000000e+00
0.000000000000e+00
0.000000000000e+00
0.000000000000e+00
0.000000000000e+00
0.000000000000e+00
0.000000000000e+00
0.000000000000e+00
0.000000000000e+00
0.000000000000e+00
0.000000000000e+00
0.000000000000e+00
0.000000000000e+00
0.000000000000e+00
0.000000000000e+00
SCALARS 8-Zz double 1
LOOKUP_TABLE default
1.035722930241e-15
2.520274742797e-16
-9.276291114113e-17
-6.177652012913e-16
1.519766806025e-16
-1.054222376482e-16
-1.605261366044e-16
-6.519910169301e-17
-9.534146672208e-17
-2.279671824492e-17
7.151611919784e-17
2.765551310216e-17
1.723199394792e-18
3.866604331833e-17
1.257514435486e-17
-3.742634581183e-18
-1.175644102226e-17
-5.724208763682e-18
-1.405427000180e-18
-2.828207238889e-17
-2.208789598220e-17
-1.006078675805e-17
-9.513640815988e-18
4.520680839885e-17
-1.542505489216e-17
3.555956552257e-17
-3.964285768711e-17
-1.678762378038e-19
-5.662404796443e-18
-1.557800132969e-17
-8.925368887010e-18
2.876588150727e-17
-1.236355147399e-18
2.892066735089e-17
2.107233060427e-17
-1.439108012034e-17
-7.476604004330e-17
-5.246301041482e-18
-1.156630798314e-17
2.344623422100e-17
5.751202009462e-18
3.960214548767e-17
4.686907742797e-18
2.612382346050e-18
-4.057157253811e-17
9.639854559299e-19
6.281103553761e-19
-6.023127176699e-18
-2.975177115321e-17
-5.269216949846e-18
-1.237070983511e-17
-3.192669738666e-17
-3.562346954116e-17
-2.523177393576e-17
8.211542340112e-18
1.040719244763e-18
3.457568388610e-17
-7.748457123866e-18
-2.187541421542e-18
-1.050892681035e-17
-6.473275230183e-18
-4.081100155171e-18
1.290277267061e-17
-2.521751860589e-17
-2.324184587328e-17
-7.418774689264e-19
-5.993313512585e-18
-3.023282124187e-17
2.485428241393e-17
-2.996983250828e-17
3.871730041659e-18
3.219134156701e-17
1.344421645741e-17
-1.131220968173e-17
-3.180351868581e-17
5.180439663594e-17
-5.220423698925e-17
2.425373246937e-17
7.197075953324e-17
1.332034796176e-17
1.721867266372e-17
-3.061855955748e-18
2.439038480873e-17
2.532113836789e-17
3.856530437291e-17
-1.616070903926e-17
6.812139367064e-18
-3.055464022163e-17
4.165107259289e-17
1.451714058016e-17
-5.325341749254e-17
8.035312126445e-18
7.014964272033e-18
-3.447160431391e-17
2.548705259405e-17
-1.044686223794e-17
3.048658231114e-18
-1.163671115621e-17
4.288413209783e-17
1.017722100956e-17
1.890378100786e-17
SCALARS C double 1
LOOKUP_TABLE default
 3.190559220786e-06
 8.268950089496e-03
 2.042146573957e-02
 8.410745722439e-02
 1.072197515378e-01
 1.081061902818e-01
 1.048343901872e-01
 1.069450471572e-01
 1.081258495838e-01
 1.085664948135e-01
 1.087314790416e-01
 1.087574512907e-01
 1.087311645268e-01
 1.086973461451e-01
 1.086684140829e-01
 1.086583485568e-01
 1.086513964433e-01
 1.086347667982e-01
 1.086478817884e-01
 1.086412016406e-01
 1.086325758466e-01
 1.086412950419e-01
 1.086374912445e-01
 1.086411192853e-01
 1.086407044857e-01
 1.086354411362e-01
 1.086439184663e-01
 1.086370071810e-01
 1.086310031022e-01
 1.086581874442e-01
 1.086426548532e-01
 1.086328502328e-01
 1.086269146736e-01
 1.086425370656e-01
 1.086419998222e-01
 1.086368745408e-01
 1.086446485700e-01
 1.086343011605e-01
 1.086522463254e-01
 1.086220757011e-01
 1.086375233404e-01
 1.086483066195e-01
 1.086400880883e-01
 1.086391176379e-01
 1.086377628578e-01
 1.086333705253e-01
 1.086619217979e-01
 1.086337619751e-01
 1.086214633208e-01
 1.086444903117e-01
 1.086413574756e-01
 1.086399915431e-01
 1.086509735186e-01
 1.086048753907e-01
 1.086622391431e-01
 1.086397425222e-01
 1.086416852931e-01
 1.086356104852e-01
 1.086386493435e-01
 1.086527606784e-01
 1.086342527434e-01
 1.086329409530e-01
 1.086463029172e-01
 1.086256712012e-01
 1.086451073422e-01
 1.086456966414e-01
 1.086363288876e-01
 1.086402139217e-01
 1.086400720580e-01
 1.086396307307e-01
 1.086405103045e-01
 1.086330844799e-01
 1.086462375532e-01
 1.086359392072e-01
 1.086426901558e-01
 1.086374139922e-01
 1.086364202606e-01
 1.086453727016e-01
 1.086246447755e-01
 1.086546596728e-01
 1.086240090096e-01
 1.086506644710e-01
 1.086407075008e-01
 1.086376379171e-01
 1.086427568840e-01
 1.086391672911e-01
 1.086394670160e-01
 1.086346169348e-01
 1.086449556213e-01
 1.086362496136e-01
 1.086398130401e-01
 1.086396244403e-01
 1.086359872415e-01
 1.086466451186e-01
 1.086426855026e-01
 1.086272744698e-01
 1.086414422931e-01
 1.086460014456e-01
 1.086357048490e-01
 1.086411018363e-01
 1.086384537967e-01
SCALARS Ca double 1
LOOKUP_TABLE default
 3.190559220786e-06
 7.757233235774e-03
 1.976733123628e-02
 6.010937501292e-02
 8.244975243218e-02
 9.307600052515e-02
 1.241477294147e-01
 1.248555766545e-01
 1.189776031087e-01
 1.147600880961e-01
 1.120642076306e-01
 1.104569461396e-01
 1.095552323096e-01
 1.090782960678e-01
 1.088367235905e-01
 1.087295908490e-01
 1.086803549487e-01
 1.086460960345e-01
 1.086521568323e-01
 1.086427607491e-01
 1.086331264513e-01
 1.086414836742e-01
 1.086375540423e-01
 1.086411396331e-01
 1.086407109124e-01
 1.086354431176e-01
 1.086439190633e-01
 1.086370073570e-01
 1.086310031531e-01
 1.086581874586e-01
 1.086426548572e-01
 1.086328502338e-01
 1.086269146739e-01
 1.086425370657e-01
 1.086419998222e-01
 1.086368745408e-01
 1.086446485700e-01
 1.086343011605e-01
 1.086522463254e-01
 1.086220757011e-01
 1.086375233404e-01
 1.086483066195e-01
 1.086400880883e-01
 1.086391176379e-01
 1.086377628578e-01
 1.086333705253e-01
 1.086619217979e-01
 1.086337619751e-01
 1.086214633208e-01
 1.086444903117e-01
 1.086413574756e-01
 1.086399915431e-01
 1.086509735186e-01
 1.086048753907e-01
 1.086622391431e-01
 1.086397425222e-01
 1.086416852931e-01
 1.086356104852e-01
 1.086386493435e-01
 1.086527606784e-01
 1.086342527434e-01
 1.086329409530e-01
 1.086463029172e-01
 1.086256712012e-01
 1.086451073422e-01
 1.086456966414e-01
 1.086363288876e-01
 1.086402139217e-01
 1.086400720580e-01
 1.086396307307e-01
 1.086405103045e-01
 1.086330844799e-01
 1.086462375532e-01
 1.086359392072e-01
 1.086426901558e-01
 1.086374139922e-01
 1.086364202606e-01
 1.086453727016e-01
 1.086246447755e-01
 1.086546596728e-01
 1.086240090096e-01
 1.086506644710e-01
 1.086407075008e-01
 1.086376379171e-01
 1.086427568840e-01
 1.086391672911e-01
 1.086394670160e-01
 1.086346169348e-01
 1.086449556213e-01
 1.086362496136e-01
 1.086398130401e-01
 1.086396244403e-01
 1.086359872415e-01
 1.086466451186e-01
 1.086426855026e-01
 1.086272744698e-01
 1.086414422931e-01
 1.086460014456e-01
 1.086357048490e-01
 1.086411018363e-01
 1.086384537967e-01
SCALARS Cl double 1
LOOKUP_TABLE default
 1.276223688314e+00
 1.206765341539e+00
 1.096109007769e+00
 9.483815156016e-01
 7.768183510846e-01
 5.999430219649e-01
 4.359307419086e-01
 2.978228607699e-01
 1.913982880546e-01
 1.158556890242e-01
 6.617610255741e-02
 3.574861113383e-02
 1.830919561929e-02
 8.914298041108e-03
 4.137632851699e-03
 1.836807537031e-03
 7.831313916073e-04
 3.228464408868e-04
 1.304604026395e-04
 5.330185046189e-05
 2.352997558464e-05
 1.245087505056e-05
 8.465532008709e-06
 7.076846874350e-06
 6.607206903276e-06
 6.452776428566e-06
 6.403318828745e-06
 6.387868537205e-06
 6.383153711252e-06
 6.381746355720e-06
 6.381334970187e-06
 6.381217062270e-06
 6.381183896703e-06
 6.381174716563e-06
 6.381172226537e-06
 6.381171562604e-06
 6.381171376830e-06
 6.381171345103e-06
 6.381171313907e-06
 6.381171337362e-06
 6.381171323524e-06
 6.381171287389e-06
 6.381171321551e-06
 6.381171322417e-06
 6.381171324161e-06
 6.381171327025e-06
 6.381171309144e-06
 6.381171325024e-06
 6.381171333554e-06
 6.381171319393e-06
 6.381171321694e-06
 6.381171320836e-06
 6.381171316608e-06
 6.381171349269e-06
 6.381171306182e-06
 6.381171325160e-06
 6.381171325749e-06
 6.381171324400e-06
 6.381171324224e-06
 6.381171315429e-06
 6.381171325028e-06
 6.381171325892e-06
 6.381171318361e-06
 6.381171333672e-06
 6.381171319732e-06
 6.381171320676e-06
 6.381171326769e-06
 6.381171318905e-06
 6.381171325267e-06
 6.381171323188e-06
 6.381171323690e-06
 6.381171327625e-06
 6.381171317509e-06
 6.381171322647e-06
 6.381171326416e-06
 6.381171323270e-06
 6.381171324286e-06
 6.381171320734e-06
 6.381171337620e-06
 6.381171314002e-06
 6.381171334754e-06
 6.381171318806e-06
 6.381171317557e-06
 6.381171324411e-06
 6.381171325100e-06
 6.381171323566e-06
 6.381171322709e-06
 6.381171326701e-06
 6.381171322596e-06
 6.381171323926e-06
 6.381171319310e-06
 6.381171328498e-06
 6.381171326166e-06
 6.381171320680e-06
 6.381171320044e-06
 6.381171333128e-06
 6.381171321592e-06
 6.381171321693e-06
 6.381171326826e-06
 6.381171320755e-06
 6.381171320423e-06
SCALARS H double 1
LOOKUP_TABLE default
 3.542055048139e+04
 3.542029987942e+04
 3.542038542240e+04
 3.542034886243e+04
 3.542035994222e+04
 3.542046091905e+04
 3.542055303086e+04
 3.542064106253e+04
 3.542071278152e+04
 3.542076478162e+04
 3.542079894985e+04
 3.542081980786e+04
 3.542083167043e+04
 3.542083801936e+04
 3.542084124991e+04
 3.542084276205e+04
 3.542084348835e+04
 3.542084383305e+04
 3.542084388317e+04
 3.542084397384e+04
 3.542084404336e+04
 3.542084398566e+04
 3.542084399806e+04
 3.542084401776e+04
 3.542084400825e+04
 3.542084402603e+04
 3.542084401323e+04
 3.542084401799e+04
 3.542084404449e+04
 3.542084392101e+04
 3.542084400422e+04
 3.542084403735e+04
 3.542084407280e+04
 3.542084400388e+04
 3.542084400785e+04
 3.542084402193e+04
 3.542084396802e+04
 3.542084404437e+04
 3.542084393281e+04
 3.542084408100e+04
 3.542084401500e+04
 3.542084380720e+04
 3.542084400170e+04
 3.542084400113e+04
 3.542084401374e+04
 3.542084403212e+04
 3.542084390781e+04
 3.542084402596e+04
 3.542084407442e+04
 3.542084399021e+04
 3.542084400189e+04
 3.542084399650e+04