# vtk DataFile Version 3.0
Unstructured Grid from OpenGeoSys
ASCII
DATASET UNSTRUCTURED_GRID
FIELD TimesAndCycles 2
TIME 1 1 double
1.800000000000e+04
CYLCE 1 1 long
180
POINTS 101 double
0.000000000000e+00 0.000000000000e+00 0.000000000000e+00
5.000000000000e-03 0.000000000000e+00 0.000000000000e+00
1.000000000000e-02 0.000000000000e+00 0.000000000000e+00
1.500000000000e-02 0.000000000000e+00 0.000000000000e+00
2.000000000000e-02 0.000000000000e+00 0.000000000000e+00
2.500000000000e-02 0.000000000000e+00 0.000000000000e+00
3.000000000000e-02 0.000000000000e+00 0.000000000000e+00
3.500000000000e-02 0.000000000000e+00 0.000000000000e+00
4.000000000000e-02 0.000000000000e+00 0.000000000000e+00
4.500000000000e-02 0.000000000000e+00 0.000000000000e+00
5.000000000000e-02 0.000000000000e+00 0.000000000000e+00
5.500000000000e-02 0.000000000000e+00 0.000000000000e+00
6.000000000000e-02 0.000000000000e+00 0.000000000000e+00
6.500000000000e-02 0.000000000000e+00 0.000000000000e+00
7.000000000000e-02 0.000000000000e+00 0.000000000000e+00
7.500000000000e-02 0.000000000000e+00 0.000000000000e+00
8.000000000000e-02 0.000000000000e+00 0.000000000000e+00
8.500000000000e-02 0.000000000000e+00 0.000000000000e+00
9.000000000000e-02 0.000000000000e+00 0.000000000000e+00
9.500000000000e-02 0.000000000000e+00 0.000000000000e+00
1.000000000000e-01 0.000000000000e+00 0.000000000000e+00
1.050000000000e-01 0.000000000000e+00 0.000000000000e+00
1.100000000000e-01 0.000000000000e+00 0.000000000000e+00
1.150000000000e-01 0.000000000000e+00 0.000000000000e+00
1.200000000000e-01 0.000000000000e+00 0.000000000000e+00
1.250000000000e-01 0.000000000000e+00 0.000000000000e+00
1.300000000000e-01 0.000000000000e+00 0.000000000000e+00
1.350000000000e-01 0.000000000000e+00 0.000000000000e+00
1.400000000000e-01 0.000000000000e+00 0.000000000000e+00
1.450000000000e-01 0.000000000000e+00 0.000000000000e+00
1.500000000000e-01 0.000000000000e+00 0.000000000000e+00
1.550000000000e-01 0.000000000000e+00 0.000000000000e+00
1.600000000000e-01 0.000000000000e+00 0.000000000000e+00
1.650000000000e-01 0.000000000000e+00 0.000000000000e+00
1.700000000000e-01 0.000000000000e+00 0.000000000000e+00
1.750000000000e-01 0.000000000000e+00 0.000000000000e+00
1.800000000000e-01 0.000000000000e+00 0.000000000000e+00
1.850000000000e-01 0.000000000000e+00 0.000000000000e+00
1.900000000000e-01 0.000000000000e+00 0.000000000000e+00
1.950000000000e-01 0.000000000000e+00 0.000000000000e+00
2.000000000000e-01 0.000000000000e+00 0.000000000000e+00
2.050000000000e-01 0.000000000000e+00 0.000000000000e+00
2.100000000000e-01 0.000000000000e+00 0.000000000000e+00
2.150000000000e-01 0.000000000000e+00 0.000000000000e+00
2.200000000000e-01 0.000000000000e+00 0.000000000000e+00
2.250000000000e-01 0.000000000000e+00 0.000000000000e+00
2.300000000000e-01 0.000000000000e+00 0.000000000000e+00
2.350000000000e-01 0.000000000000e+00 0.000000000000e+00
2.400000000000e-01 0.000000000000e+00 0.000000000000e+00
2.450000000000e-01 0.000000000000e+00 0.000000000000e+00
2.500000000000e-01 0.000000000000e+00 0.000000000000e+00
2.550000000000e-01 0.000000000000e+00 0.000000000000e+00
2.600000000000e-01 0.000000000000e+00 0.000000000000e+00
2.650000000000e-01 0.000000000000e+00 0.000000000000e+00
2.700000000000e-01 0.000000000000e+00 0.000000000000e+00
2.750000000000e-01 0.000000000000e+00 0.000000000000e+00
2.800000000000e-01 0.000000000000e+00 0.000000000000e+00
2.850000000000e-01 0.000000000000e+00 0.000000000000e+00
2.900000000000e-01 0.000000000000e+00 0.000000000000e+00
2.950000000000e-01 0.000000000000e+00 0.000000000000e+00
3.000000000000e-01 0.000000000000e+00 0.000000000000e+00
3.050000000000e-01 0.000000000000e+00 0.000000000000e+00
3.100000000000e-01 0.000000000000e+00 0.000000000000e+00
3.150000000000e-01 0.000000000000e+00 0.000000000000e+00
3.200000000000e-01 0.000000000000e+00 0.000000000000e+00
3.250000000000e-01 0.000000000000e+00 0.000000000000e+00
3.300000000000e-01 0.000000000000e+00 0.000000000000e+00
3.350000000000e-01 0.000000000000e+00 0.000000000000e+00
3.400000000000e-01 0.000000000000e+00 0.000000000000e+00
3.450000000000e-01 0.000000000000e+00 0.000000000000e+00
3.500000000000e-01 0.000000000000e+00 0.000000000000e+00
3.550000000000e-01 0.000000000000e+00 0.000000000000e+00
3.600000000000e-01 0.000000000000e+00 0.000000000000e+00
3.650000000000e-01 0.000000000000e+00 0.000000000000e+00
3.700000000000e-01 0.000000000000e+00 0.000000000000e+00
3.750000000000e-01 0.000000000000e+00 0.000000000000e+00
3.800000000000e-01 0.000000000000e+00 0.000000000000e+00
3.850000000000e-01 0.000000000000e+00 0.000000000000e+00
3.900000000000e-01 0.000000000000e+00 0.000000000000e+00
3.950000000000e-01 0.000000000000e+00 0.000000000000e+00
4.000000000000e-01 0.000000000000e+00 0.000000000000e+00
4.050000000000e-01 0.000000000000e+00 0.000000000000e+00
4.100000000000e-01 0.000000000000e+00 0.000000000000e+00
4.150000000000e-01 0.000000000000e+00 0.000000000000e+00
4.200000000000e-01 0.000000000000e+00 0.000000000000e+00
4.250000000000e-01 0.000000000000e+00 0.000000000000e+00
4.300000000000e-01 0.000000000000e+00 0.000000000000e+00
4.350000000000e-01 0.000000000000e+00 0.000000000000e+00
4.400000000000e-01 0.000000000000e+00 0.000000000000e+00
4.450000000000e-01 0.000000000000e+00 0.000000000000e+00
4.500000000000e-01 0.000000000000e+00 0.000000000000e+00
4.550000000000e-01 0.000000000000e+00 0.000000000000e+00
4.600000000000e-01 0.000000000000e+00 0.000000000000e+00
4.650000000000e-01 0.000000000000e+00 0.000000000000e+00
4.700000000000e-01 0.000000000000e+00 0.000000000000e+00
4.750000000000e-01 0.000000000000e+00 0.000000000000e+00
4.800000000000e-01 0.000000000000e+00 0.000000000000e+00
4.850000000000e-01 0.000000000000e+00 0.000000000000e+00
4.900000000000e-01 0.000000000000e+00 0.000000000000e+00
4.950000000000e-01 0.000000000000e+00 0.000000000000e+00
5.000000000000e-01 0.000000000000e+00 0.000000000000e+00
CELLS 100 300
2 0 1
2 2 3
2 4 5
2 6 7
2 8 9
2 10 11
2 12 13
2 14 15
2 16 17
2 18 19
2 20 21
2 22 23
2 24 25
2 26 27
2 28 29
2 30 31
2 32 33
2 34 35
2 36 37
2 38 39
2 40 41
2 42 43
2 44 45
2 46 47
2 48 49
2 50 51
2 52 53
2 54 55
2 56 57
2 58 59
2 60 61
2 62 63
2 64 65
2 66 67
2 68 69
2 70 71
2 72 73
2 74 75
2 76 77
2 78 79
2 80 81
2 82 83
2 84 85
2 86 87
2 88 89
2 90 91
2 92 93
2 94 95
2 96 97
2 98 99
2 1 2
2 3 4
2 5 6
2 7 8
2 9 10
2 11 12
2 13 14
2 15 16
2 17 18
2 19 20
2 21 22
2 23 24
2 25 26
2 27 28
2 29 30
2 31 32
2 33 34
2 35 36
2 37 38
2 39 40
2 41 42
2 43 44
2 45 46
2 47 48
2 49 50
2 51 52
2 53 54
2 55 56
2 57 58
2 59 60
2 61 62
2 63 64
2 65 66
2 67 68
2 69 70
2 71 72
2 73 74
2 75 76
2 77 78
2 79 80
2 81 82
2 83 84
2 85 86
2 87 88
2 89 90
2 91 92
2 93 94
2 95 96
2 97 98
2 99 100

CELL_TYPES 100
3
3
3
3
3
3
3
3
3
3
3
3
3
3
3
3
3
3
3
3
3
3
3
3
3
3
3
3
3
3
3
3
3
3
3
3
3
3
3
3
3
3
3
3
3
3
3
3
3
3
3
3
3
3
3
3
3
3
3
3
3
3
3
3
3
3
3
3
3
3
3
3
3
3
3
3
3
3
3
3
3
3
3
3
3
3
3
3
3
3
3
3
3
3
3
3
3
3
3
3

POINT_DATA 101
SCALARS 1-C double 1
LOOKUP_TABLE default
9.970358361137e-06
5.842772270343e-05
1.520173428466e-04
3.224488343307e-04
6.214585414808e-04
1.132973508926e-03
1.992507784642e-03
3.417229409502e-03
5.750845360946e-03
9.533615557973e-03
1.564354304175e-02
2.567784303936e-02
4.264994366075e-02
6.970154253912e-02
1.036257751100e-01
1.422581196938e-01
1.413814548730e-01
1.402756033411e-01
1.389126744456e-01
1.372477686226e-01
1.352479285625e-01
1.329174534553e-01
1.302307644200e-01
1.272091936332e-01
1.239020268730e-01
1.203375581935e-01
1.165982253391e-01
1.127658244321e-01
1.089295963341e-01
1.051977615984e-01
1.016554831223e-01
9.850030318756e-02
9.584041211042e-02
9.286852125832e-02
9.508685045841e-02
9.711329398666e-02
9.885421454458e-02
1.006280436436e-01
1.024380933319e-01
1.042696427677e-01
1.060958635733e-01
1.078921048343e-01
1.096348303275e-01
1.112953145645e-01
1.128562906007e-01
1.142988350203e-01
1.156093672897e-01
1.167778576689e-01
1.177981638333e-01
1.186822350584e-01
1.194340129096e-01
1.200770926998e-01
1.205835026216e-01
1.209922486634e-01
1.213236764516e-01
1.215899633726e-01
1.218015578833e-01
1.219492718897e-01
1.220685502399e-01
1.221601571838e-01
1.222155606034e-01
1.222717149987e-01
1.223086323584e-01
1.223332605653e-01
1.223523665981e-01
1.223626882650e-01
1.223710635791e-01
1.223730739561e-01
1.223754467339e-01
1.223803502849e-01
1.223871163161e-01
1.223905496549e-01
1.224000682217e-01
1.223968383860e-01
1.223988549227e-01
1.223883977296e-01
1.224022970901e-01
1.223996657928e-01
1.223896219838e-01
1.223941099252e-01
1.223951629474e-01
1.223940122955e-01
1.224003644666e-01
1.223948446782e-01
1.223920688403e-01
1.223984228169e-01
1.223437664111e-01
1.223940247110e-01
1.223944577542e-01
1.223934386658e-01
1.223910034318e-01
1.223966786533e-01
1.223944101944e-01
1.223948414603e-01
1.223938371863e-01
1.223948748308e-01
1.223948218865e-01
1.223980765893e-01
1.223915770512e-01
1.223864002035e-01
1.224003226714e-01
SCALARS 2-Ca double 1
LOOKUP_TABLE default
9.970358361137e-06
3.901476530092e-05
9.486681817981e-05
1.958921315665e-04
3.716219587336e-04
6.692478803122e-04
1.163839620015e-03
1.974019542802e-03
3.285179736196e-03
5.385406031431e-03
8.737136496935e-03
1.416910369217e-02
2.322617804530e-02
3.752685823246e-02
5.552641386094e-02
7.621396497399e-02
7.756666995796e-02
7.932616204674e-02
8.159785806687e-02
8.449790275227e-02
8.816918207284e-02
9.279547542714e-02
9.856937314606e-02
1.057321971133e-01
1.145661985755e-01
1.253721754844e-01
1.385092221270e-01
1.543672258520e-01
1.733786351002e-01
1.960791267114e-01
2.229931704750e-01
2.538675142911e-01
2.889597919350e-01
3.444098149318e-01
3.224986698075e-01
3.026365420409e-01
2.850466233512e-01
2.682480143889e-01
2.522596252019e-01
2.372074871059e-01
2.231874183570e-01
2.102615305781e-01
1.984619048819e-01
1.877873352810e-01
1.782222253883e-01
1.697261582409e-01
1.622441026010e-01
1.557081660740e-01
1.500416246511e-01
1.451767919112e-01
1.410323991558e-01
1.375444206471e-01
1.345976058958e-01
1.321463098941e-01
1.301306502159e-01
1.284883128269e-01
1.271618559889e-01
1.260812679782e-01
1.252283632678e-01
1.245573224810e-01
1.240197222721e-01
1.236188174748e-01
1.233065193598e-01
1.230666360654e-01
1.228871098678e-01
1.227495435457e-01
1.226487451737e-01
1.225708404764e-01
1.225152051340e-01
1.224783524011e-01
1.224553091601e-01
1.224376367469e-01
1.224323337659e-01
1.224187798152e-01
1.224136628656e-01
1.223983161814e-01
1.224088907741e-01
1.224040165364e-01
1.223924714681e-01
1.223959624028e-01
1.223963584220e-01
1.223947781483e-01
1.224008515294e-01
1.223951522005e-01
1.223922616094e-01
1.223985427904e-01
1.223438405486e-01
1.223940702006e-01
1.223944854699e-01
1.223934554345e-01
1.223910135068e-01
1.223966846649e-01
1.223944137569e-01
1.223948435570e-01
1.223938384119e-01
1.223948755424e-01
1.223948222970e-01
1.223980768247e-01
1.223915771859e-01
1.223864002835e-01
1.224003227329e-01
SCALARS 3-Cl double 1
LOOKUP_TABLE default
3.988143344455e+00
3.988077923920e+00
3.987955239949e+00
3.987742088887e+00
3.987390697338e+00
3.986833981105e+00
3.985979855514e+00
3.984704614511e+00
3.982845485622e+00
3.980192574696e+00
3.976480553139e+00
3.971380587813e+00
3.964493122227e+00
3.955342076719e+00
3.943371714266e+00
3.927947961777e+00
3.908358784797e+00
3.883830306602e+00
3.853536805376e+00
3.816622751220e+00
3.772229255038e+00
3.719525615516e+00
3.657744908540e+00
3.586222138382e+00
3.504433029677e+00
3.412031248835e+00
3.308881691187e+00
3.195087450295e+00
3.071008330170e+00
2.937269133656e+00
2.794756533859e+00
2.644604007344e+00
2.488165028061e+00
2.326975783444e+00
2.162709456075e+00
1.997122524489e+00
1.831998836725e+00
1.669092482107e+00
1.510072989851e+00
1.356475650154e+00
1.209659323320e+00
1.070773536356e+00
9.407360064282e-01
8.202210297954e-01
7.096584873102e-01
6.092426129102e-01
5.189491696819e-01
4.385593330349e-01
3.676883755026e-01
3.058171994580e-01
2.523248534258e-01
2.065203658823e-01
1.676725080408e-01
1.350364269850e-01
1.078764299948e-01
8.548453583548e-02
6.719470520516e-02
5.239291171045e-02
4.052340631166e-02
3.109166006039e-02
2.366454507418e-02
1.786833828553e-02
1.338511674215e-02
9.948066758623e-03
7.336162032447e-03
5.368588471367e-03
3.899212509834e-03
2.811312079588e-03
2.012719232502e-03
1.431463365206e-03
1.011955224271e-03
7.117143394330e-04
4.986156487528e-04
3.486132489611e-04
2.438890819060e-04
1.713701237659e-04
1.215578194822e-04
8.761667383482e-05
6.467393013847e-05
4.928823018788e-05
3.905138521766e-05
3.229342350048e-05
2.786662566837e-05
2.498915106315e-05
2.313303768678e-05
2.194483124729e-05
2.118991844708e-05
2.071388001212e-05
2.041592513248e-05
2.023080877257e-05
2.011663995666e-05
2.004673936107e-05
2.000425125383e-05
1.997861062264e-05
1.996324724586e-05
1.995410700354e-05
1.994870783613e-05
1.994554318252e-05
1.994371188331e-05
1.994270702873e-05
1.994236805489e-05
SCALARS 4-H double 1
LOOKUP_TABLE default
2.701109245634e-04
3.245046993015e-04
4.502085318058e-04
7.342042384408e-04
1.290198367523e-03
2.278246975963e-03
3.947613811274e-03
6.686136552253e-03
1.107145522998e-02
1.792588822573e-02
2.840890778106e-02
4.432912313756e-02
6.847714342436e-02
1.019243643249e-01
1.380216509913e-01
1.738583127682e-01
1.730878451730e-01
1.721122449797e-01
1.709043448476e-01
1.694202099576e-01
1.676251586010e-01
1.655162297627e-01
1.630615967850e-01
1.602699658470e-01
1.571786425882e-01
1.537879834253e-01
1.501945980130e-01
1.464239116539e-01
1.425905160314e-01
1.387524111121e-01
1.350288317243e-01
1.316105919337e-01
1.286138797232e-01
1.249947690377e-01
1.277007567874e-01
1.302108387325e-01
1.324404972394e-01
1.347408992162e-01
1.370855998879e-01
1.394984517979e-01
1.419180773247e-01
1.442992563965e-01
1.466546849767e-01
1.489299046310e-01
1.511147389134e-01
1.531508139380e-01
1.550284810897e-01
1.567375339661e-01
1.582661369309e-01
1.596206866864e-01
1.608003570745e-01
1.618188928182e-01
1.626633568486e-01
1.633703516580e-01
1.639716045394e-01
1.644410954882e-01
1.648183430805e-01
1.651244033485e-01
1.653718610731e-01
1.655466366033e-01
1.656928593655e-01
1.657828785826e-01
1.658678132960e-01
1.659454926909e-01
1.659839226003e-01
1.660063300157e-01
1.660324737095e-01
1.660505954072e-01
1.660676042022e-01
1.660721482804e-01
1.660848424121e-01
1.660909323259e-01
1.660988145509e-01
1.661079025971e-01
1.660923581703e-01
1.660905098844e-01
1.661090095823e-01
1.661012575290e-01
1.660896666791e-01
1.661120736894e-01
1.660971264743e-01
1.661010769353e-01
1.661045989351e-01
1.661001971296e-01
1.660944518542e-01
1.661104974345e-01
1.660793639958e-01
1.661151824634e-01
1.661018529752e-01
1.661118720477e-01
1.661121540215e-01
1.661076195955e-01
1.661162597470e-01
1.660960960157e-01
1.661049617746e-01
1.661118112756e-01
1.661151662518e-01
1.661016149624e-01
1.661031225591e-01
1.660989286300e-01
1.661017981604e-01
SCALARS 5-Mg double 1
LOOKUP_TABLE default
1.994071672227e+00
1.994058374917e+00
1.994034770499e+00
1.993997601146e+00
1.993945185252e+00
1.993880716181e+00
1.993818595922e+00
1.993795517122e+00
1.993888408436e+00
1.994244496875e+00
1.995146683114e+00
1.997199033254e+00
2.001670326729e+00
2.009845722666e+00
2.019785218382e+00
2.030018135608e+00
2.017994177313e+00
2.002864594595e+00
1.984083219067e+00
1.961061241481e+00
1.933193374008e+00
1.899884785786e+00
1.860533845544e+00
1.814588065711e+00
1.761552343136e+00
1.700981007127e+00
1.632529848806e+00
1.555942323727e+00
1.471055126319e+00
1.377753201715e+00
1.276040579577e+00
1.166934792569e+00
1.050963134206e+00
9.119465980484e-01
8.539429086884e-01
7.930380141900e-01
7.298070095558e-01
6.669262703082e-01
6.052149630556e-01
5.452999807386e-01
4.877381068764e-01
4.330173424341e-01
3.815409286596e-01
3.336184941812e-01
2.894633088675e-01
2.491939832346e-01
2.128398495297e-01
1.803493581123e-01
1.516007269334e-01
1.264140428761e-01
1.045640404667e-01
8.579285499378e-02
6.982215074610e-02
5.636415226165e-02
4.513124123294e-02
3.584391846334e-02
2.823705449685e-02
2.206445976656e-02
1.710189012781e-02
1.314866473292e-02
1.002811086828e-02
7.587066666509e-03
5.694671369492e-03
4.240657879033e-03
3.133337746398e-03
2.297438954868e-03
1.671924660287e-03
1.207889519377e-03
8.666012161259e-04
6.177295663591e-04
4.377847681123e-04
3.087700776267e-04
2.170422801108e-04
1.523651952294e-04
1.071365980625e-04
7.576661007512e-05
5.418522569071e-05
3.945759323336e-05
2.948748075047e-05
2.279163745424e-05
1.833021803534e-05
1.538085894648e-05
1.344625002876e-05
1.218705325567e-05
1.137374968578e-05
1.085244210444e-05
1.052082175353e-05
1.031145037928e-05
1.018024678967e-05
1.009863567503e-05
1.004824490462e-05
1.001735807197e-05
9.998563206855e-06
9.987208643282e-06
9.980397982873e-06
9.976341850624e-06
9.973943436860e-06
9.972536237100e-06
9.971721154978e-06
9.971273544830e-06
9.971122480038e-06
SCALARS 6-O double 1
LOOKUP_TABLE default
2.010568337471e-02
2.028119600840e-02
2.063033714849e-02
2.129322060889e-02
2.248405849235e-02
2.453767854812e-02
2.798939854211e-02
3.369020790668e-02
4.296737220853e-02
5.786227515985e-02
8.160060144403e-02
1.198930992958e-01
1.831933397420e-01
2.814835316712e-01
4.018435104008e-01
5.363529377945e-01
5.342191242404e-01
5.315174283794e-01
5.281877537255e-01
5.241119329116e-01
5.192124029891e-01
5.135379631209e-01
5.070304767083e-01
4.997882210984e-01
4.920013031505e-01
4.837703735669e-01
4.753971367573e-01
4.671350618232e-01
4.592929837410e-01
4.521964558170e-01
4.461206919877e-01
4.417027271955e-01
4.392643210823e-01
4.357925148552e-01
4.511924710132e-01
4.659783223646e-01
4.797466252758e-01
4.935493225917e-01
5.073079954894e-01
5.209213134326e-01
5.342169456660e-01
5.470465909051e-01
5.593046805305e-01
5.708474541592e-01
5.815986665091e-01
5.914636089978e-01
6.003977958672e-01
6.083758725630e-01
6.153907990912e-01
6.215049746113e-01
6.267577486199e-01
6.312578699579e-01
6.349478579860e-01
6.379965496329e-01
6.405139525352e-01
6.425554494214e-01
6.442021189103e-01
6.454645587798e-01
6.464804076076e-01
6.472671757724e-01
6.478408252177e-01
6.483152150378e-01
6.486702500992e-01
6.489376979897e-01
6.491318112876e-01
6.492625555927e-01
6.493669022088e-01
6.494309703295e-01
6.494825454044e-01
6.495256964880e-01
6.495712281033e-01
6.495980904565e-01
6.496401814734e-01
6.496417894841e-01
6.496447819777e-01
6.496157513286e-01
6.496689420894e-01
6.496587003921e-01
6.496238065612e-01
6.496491666140e-01
6.496453130599e-01
6.496441406370e-01
6.496651575853e-01
6.496465267963e-01
6.496354102577e-01
6.496625485244e-01
6.494830463025e-01
6.496517521064e-01
6.496463998860e-01
6.496483605200e-01
6.496412009074e-01
6.496559625787e-01
6.496534790944e-01
6.496446922180e-01
6.496461129523e-01
6.496526510609e-01
6.496541699465e-01
6.496571585248e-01
6.496384138211e-01
6.496207863005e-01
6.496639885216e-01
SCALARS 7-Sn double 1
LOOKUP_TABLE default
0.000000000000e+00
0.000000000000e+00
0.000000000000e+00
0.000000000000e+00
0.000000000000e+00
0.000000000000e+00
0.000000000000e+00
0.000000000000e+00
0.000000000000e+00
0.000000000000e+00
0.000000000000e+00
0.000000000000e+00
0.000000000000e+00
0.000000000000e+00
0.000000000000e+00
0.000000000000e+00
0.000000000000e+00
0.000000000000e+00
0.000000000000e+00
0.000000000000e+00
0.000000000000e+00
0.000000000000e+00
0.000000000000e+00
0.000000000000e+00
0.000000000000e+00
0.000000000000e+00
0.000000000000e+00
0.000000000000e+00
0.000000000000e+00
0.000000000000e+00
0.000000000000e+00
0.000000000000e+00
0.000000000000e+00
0.000000000000e+00
0.000000000000e+00
0.000000000000e+00
0.000000000000e+00
0.000000000000e+00
0.000000000000e+00
0.000000000000e+00
0.000000000000e+00
0.000000000000e+00
0.000000000000e+00
0.000000000000e+00
0.000000000000e+00
0.000000000000e+00
0.000000000000e+00
0.000000000000e+00
0.000000000000e+00
0.000000000000e+00
0.000000000000e+00
0.000000000000e+00
0.000000000000e+00
0.000000000000e+00
0.000000000000e+00
0.000000000000e+00
0.000000000000e+00
0.000000000000e+00
0.000000000000e+00
0.000000000000e+00
0.000000000000e+00
0.000000000000e+00
0.000000000000e+00
0.000000000000e+00
0.000000000000e+00
0.000000000000e+00
0.000000000000e+00
0.000000000000e+00
0.000000000000e+00
0.000000000000e+00
0.000000000000e+00
0.000000000000e+00
0.000000000000e+00
0.000000000000e+00
0.000000000000e+00
0.000000000000e+00
0.000000000000e+00
0.000000000000e+00
0.000000000000e+00
0.000000000000e+00
0.000000000000e+00
0.000000000000e+00
0.000000000000e+00
0.000000000000e+00
0.000000000000e+00
0.000000000000e+00
0.000000000000e+00
0.000000000000e+00
0.000000000000e+00
0.000000000000e+00
0.000000000000e+00
0.000000000000e+00
0.000000000000e+00
0.000000000000e+00
0.000000000000e+00
0.000000000000e+00
0.000000000000e+00
0.000000000000e+00
0.000000000000e+00
0.000000000000e+00
0.000000000000e+00
SCALARS 8-Zz double 1
LOOKUP_TABLE default
1.035722930241e-15
1.534197201286e-14
-4.373271875052e-16
-2.602788975530e-15
-4.590310953762e-15
-2.150222784264e-15
1.125506966884e-15
-7.570909580482e-16
-2.202911173244e-17
4.276532684684e-16
6.274430539487e-17
-1.208030053682e-15
2.761676351610e-16
-4.478322617613e-16
8.522682506778e-17
-5.624673326881e-17
1.394883684133e-16
1.086889188899e-16
-2.913552905415e-16
3.311180091179e-16
-4.986992391140e-16
-5.640775960582e-16
-3.755203075193e-17
-7.872585182636e-17
1.610873557381e-16
2.124040707516e-16
4.629277247787e-16
7.872088428992e-16
4.293372358133e-16
-3.456469843873e-16
7.806256722049e-16
-1.674303151099e-16
1.851419359782e-16
-1.002038922835e-17
2.357116491944e-16
3.112062895981e-18
3.462951596283e-16
-9.627639083115e-18
-4.410583977924e-17
-6.835950545887e-17
1.060265397777e-16
-4.198792652300e-17
-1.564660371340e-16
-2.660598263222e-17
6.522330331517e-17
2.199363893959e-17
-1.268016188571e-16
9.152741272294e-17
-1.308156705159e-17
-7.963249592231e-17
-3.254912835103e-17
6.545868553318e-17
5.399347936163e-17
-1.002923760846e-16
-7.932225064082e-17
2.857973623035e-17
-9.831306481656e-19
3.766945528662e-18
1.004552007565e-17
-4.143088201277e-18
3.192729582361e-17
2.998249428551e-17
-2.293340885998e-17
-1.871717363572e-17
1.382759422590e-17
5.461302867792e-17
5.096043226976e-17
9.456711286033e-18
-8.378483536302e-19
1.052983477197e-17
-1.456409128782e-18
1.766455946412e-17
1.326323450699e-17
9.812712516879e-18
-1.779776302887e-19
1.678115513302e-17
2.691538029005e-18
2.215265827913e-17
1.017432395087e-17
8.920479091799e-18
-8.886848707175e-18
5.209512980416e-18
-2.116053004164e-17
-1.599930134278e-17
1.879226721793e-17
3.074514116640e-17
-3.171971833592e-17
2.784863232495e-17
8.067685631252e-18
7.225683277104e-18
4.037395926894e-17
5.897082053105e-18
4.144544253530e-18
1.649147985042e-17
-1.082970343079e-17
2.327837337357e-17
3.248788396020e-17
-2.836130486063e-17
2.793042427099e-18
1.777950697484e-17
-1.613993894311e-17
SCALARS C double 1
LOOKUP_TABLE default
 3.190559220786e-06
 1.869697265517e-05
 4.864581350777e-05
 1.031841865338e-04
 1.988678116956e-04
 3.625534889139e-04
 6.376059486994e-04
 1.093519340985e-03
 1.840280494989e-03
 3.050773522307e-03
 5.005960919718e-03
 8.216954331551e-03
 1.364805598221e-02
 2.230461456614e-02
 3.316042785780e-02
 1.037575751500e-01
 1.193678069307e-01
 1.213525758547e-01
 1.212165916185e-01
 1.206416775703e-01
 1.198678734848e-01
 1.190149785542e-01
 1.179767718489e-01
 1.168401899314e-01
 1.155308436536e-01
 1.141165705652e-01
 1.126211817929e-01
 1.110156819639e-01
 1.094145139737e-01
 1.078267016658e-01
 1.062036445155e-01
 1.046947004698e-01
 1.033388143047e-01
 1.014953834497e-01
 1.005330393784e-01
 1.011049577277e-01
 1.016804142180e-01
 1.021567636208e-01
 1.026938314497e-01
 1.032070604565e-01
 1.036905724895e-01
 1.042476611418e-01
 1.047242269510e-01
 1.052634513334e-01
 1.056685312387e-01
 1.060790843535e-01
 1.065378642622e-01
 1.068862570486e-01
 1.071461816961e-01
 1.074670726118e-01
 1.076642515287e-01
 1.079072998901e-01
 1.080722378699e-01
 1.081557570199e-01
 1.082784457509e-01
 1.083992864587e-01
 1.084735331447e-01
 1.084813897492e-01
 1.085238364037e-01
 1.086009494712e-01
 1.085549186684e-01
 1.086094555114e-01
 1.086266083887e-01
 1.085894298516e-01
 1.086108684823e-01
 1.086948593149e-01
 1.085976596696e-01
 1.086192162095e-01
 1.086291956680e-01
 1.086950030955e-01
 1.085778021646e-01
 1.086317371604e-01
 1.086668350188e-01
 1.086319520753e-01
 1.086820003680e-01
 1.085929461492e-01
 1.086842194286e-01
 1.086145620404e-01
 1.086426030990e-01
 1.085932531366e-01
 1.086413017583e-01
 1.086571355467e-01
 1.086577311019e-01
 1.086204442896e-01
 1.086643536380e-01
 1.086465220160e-01
 1.086022762739e-01
 1.086667194042e-01
 1.086436513335e-01
 1.086223632281e-01
 1.086349938872e-01
 1.086490864202e-01
 1.086363788819e-01
 1.086697497376e-01
 1.086139042530e-01
 1.086479899643e-01
 1.085946400221e-01
 1.086947552668e-01
 1.085949879394e-01
 1.087018808579e-01
 1.085390536835e-01
SCALARS Ca double 1
LOOKUP_TABLE default
 3.190559220786e-06
 1.248479259892e-05
 3.035754644065e-05
 6.268582203440e-05
 1.189196716732e-04
 2.141604830509e-04
 3.724306980244e-04
 6.316896792278e-04
 1.051263216380e-03
 1.723339275394e-03
 2.795898840639e-03
 4.534137769249e-03
 7.432417279061e-03
 1.200865975503e-02
 1.776854879091e-02
 5.350595650595e-02
 6.188420059480e-02
 6.361655657269e-02
 6.449357354160e-02
 6.540051302248e-02
 6.650839142816e-02
 6.793522971374e-02
 6.969363889469e-02
 7.190089690551e-02
 7.460224383436e-02
 7.792332655520e-02
 8.197777063459e-02
 8.686275500166e-02
 9.275960572076e-02
 9.982693592033e-02
 1.081946499053e-01
 1.178247793226e-01
 1.288019289734e-01
 1.532235043822e-01
 1.708134779856e-01
 1.668722221769e-01
 1.612618264349e-01
 1.557950120434e-01
 1.506365947664e-01
 1.457470584192e-01
 1.411597716085e-01
 1.370057914084e-01
 1.331488164762e-01
 1.297408339304e-01
 1.265855758802e-01
 1.238157816831e-01
 1.214609407061e-01
 1.193439233385e-01
 1.174640624025e-01
 1.159453087826e-01
 1.145757172096e-01
 1.134968303184e-01
 1.125567392709e-01
 1.117250473634e-01
 1.110966700462e-01
 1.106067525498e-01
 1.101888240814e-01
 1.098036250678e-01
 1.095349739494e-01
 1.093680403720e-01
 1.091322489057e-01
 1.090405271844e-01
 1.089459313997e-01
 1.088241094033e-01
 1.087819858847e-01
 1.088186526825e-01
 1.086865175495e-01
 1.086825013318e-01
 1.086739182400e-01
 1.087263636911e-01
 1.085996238181e-01
 1.086468049908e-01
 1.086771599661e-01
 1.086389733144e-01
 1.086867388974e-01
 1.085961200455e-01
 1.086863294020e-01
 1.086159542748e-01
 1.086435149316e-01
 1.085938459280e-01
 1.086416843092e-01
 1.086573806190e-01
 1.086578869615e-01
 1.086205426965e-01
 1.086644153240e-01
 1.086465604075e-01
 1.086022999978e-01
 1.086667339608e-01
 1.086436602025e-01
 1.086223685941e-01
 1.086349971112e-01
 1.086490883439e-01
 1.086363800219e-01
 1.086697504085e-01
 1.086139046453e-01
 1.086479901920e-01
 1.085946401535e-01
 1.086947553421e-01
 1.085949879825e-01
 1.087018808835e-01
 1.085390537032e-01
SCALARS Cl double 1
LOOKUP_TABLE default
 1.276223688314e+00
 1.276191856196e+00
 1.276152597113e+00
 1.276084388403e+00
 1.275971942498e+00
 1.275793792337e+00
 1.275520470666e+00
 1.275112391332e+00
 1.274517466861e+00
 1.273668530761e+00
 1.272480677422e+00
 1.270848679667e+00
 1.268644678728e+00
 1.265716328285e+00
 1.261885791528e+00
 1.256942799552e+00
 1.250672266115e+00
 1.242822876640e+00
 1.233128941017e+00
 1.221316476039e+00
 1.207110606136e+00
 1.190245492818e+00
 1.170475732518e+00
 1.147588517245e+00
 1.121416089330e+00
 1.091847614916e+00
 1.058839860393e+00
 1.022425820745e+00
 9.827206232535e-01
 9.399242065370e-01
 8.943203116219e-01
 8.462716412392e-01
 7.962113053787e-01
 7.446307542491e-01
 6.920652301355e-01
 6.390775080145e-01
 5.862380672302e-01
 5.341081781451e-01
 4.832220778928e-01
 4.340710629196e-01
 3.870899667814e-01
 3.426466323822e-01
 3.010347348309e-01
 2.624700429192e-01
 2.270901243521e-01
 1.949571294020e-01
 1.660633019139e-01
 1.403386215804e-01
 1.176599750565e-01
 9.786124963322e-02
 8.074374376979e-02
 6.608634547065e-02
 5.365506322477e-02
 4.321154464573e-02
 3.452036806713e-02
 2.735498040764e-02
 2.150224979329e-02
 1.676568825893e-02
 1.296745637712e-02
 9.949305352082e-03
 7.572634791339e-03
 5.717853403442e-03
 4.283226232312e-03
 3.183373110879e-03
 2.347565760914e-03
 1.717943838578e-03
 1.247744769323e-03
 8.996175317262e-04
 6.440684829057e-04
 4.580670846880e-04
 3.238248334326e-04
 2.277479976242e-04
 1.595565929695e-04
 1.115559502087e-04
 7.804430326015e-05
 5.483829754368e-05
 3.889840107620e-05
 2.803726293690e-05
 2.069560391362e-05
 1.577219280422e-05
 1.249641083044e-05
 1.033386867532e-05
 8.917297050430e-06
 7.996507601372e-06
 7.402552823072e-06
 7.022327766613e-06
 6.780756318692e-06
 6.628424377544e-06
 6.533079081348e-06
 6.473842015630e-06
 6.437308079334e-06
 6.414939937709e-06
 6.401343787550e-06
 6.393138782342e-06
 6.388222555491e-06
 6.385297660654e-06
 6.383569970866e-06
 6.382557211350e-06
 6.381971269083e-06
 6.381649636497e-06
 6.381541288364e-06
SCALARS H double 1
LOOKUP_TABLE default
 3.542055048139e+04
 3.542024804686e+04
 3.542024808164e+04
 3.542024816038e+04
 3.542024831217e+04
 3.542024857680e+04
 3.542024901669e+04
 3.542024972997e+04
 3.542025088007e+04
 3.542025273142e+04
 3.542025573526e+04
 3.542026075348e+04
 3.542026949304e+04
 3.542028412156e+04
 3.542030377679e+04
 3.542012007869e+04
 3.542006677823e+04
 3.542006259864e+04
 3.542006664977e+04
 3.542007302131e+04
 3.542008095921e+04
 3.542009019263e+04
 3.542010118913e+04
 3.542011378350e+04
 3.542012840011e+04
 3.542014488360e+04
 3.542016327348e+04
 3.542018375509e+04
 3.542020594876e+04
 3.542022982845e+04
 3.542025547522e+04
 3.542028251264e+04
 3.542031069966e+04
 3.542033124886e+04
 3.542034833326e+04
 3.542038381966e+04
 3.542042104834e+04
 3.542045826687e+04
 3.542049448839e+04
 3.542052969615e+04
 3.542056356807e+04
 3.542059538279e+04
 3.542062552093e+04
 3.542065318979e+04
 3.542067905944e+04
 3.542070247249e+04
 3.542072322405e+04
 3.542074198177e+04
 3.542075871988e+04
 3.542077295759e+04
 3.542078558803e+04
 3.542079611239e+04
 3.542080513865e+04