# vtk DataFile Version 3.0
Unstructured Grid from OpenGeoSys
ASCII
DATASET UNSTRUCTURED_GRID
FIELD TimesAndCycles 2
TIME 1 1 double
8.000000000000e+03
CYLCE 1 1 long
80
POINTS 101 double
0.000000000000e+00 0.000000000000e+00 0.000000000000e+00
5.000000000000e-03 0.000000000000e+00 0.000000000000e+00
1.000000000000e-02 0.000000000000e+00 0.000000000000e+00
1.500000000000e-02 0.000000000000e+00 0.000000000000e+00
2.000000000000e-02 0.000000000000e+00 0.000000000000e+00
2.500000000000e-02 0.000000000000e+00 0.000000000000e+00
3.000000000000e-02 0.000000000000e+00 0.000000000000e+00
3.500000000000e-02 0.000000000000e+00 0.000000000000e+00
4.000000000000e-02 0.000000000000e+00 0.000000000000e+00
4.500000000000e-02 0.000000000000e+00 0.000000000000e+00
5.000000000000e-02 0.000000000000e+00 0.000000000000e+00
5.500000000000e-02 0.000000000000e+00 0.000000000000e+00
6.000000000000e-02 0.000000000000e+00 0.000000000000e+00
6.500000000000e-02 0.000000000000e+00 0.000000000000e+00
7.000000000000e-02 0.000000000000e+00 0.000000000000e+00
7.500000000000e-02 0.000000000000e+00 0.000000000000e+00
8.000000000000e-02 0.000000000000e+00 0.000000000000e+00
8.500000000000e-02 0.000000000000e+00 0.000000000000e+00
9.000000000000e-02 0.000000000000e+00 0.000000000000e+00
9.500000000000e-02 0.000000000000e+00 0.000000000000e+00
1.000000000000e-01 0.000000000000e+00 0.000000000000e+00
1.050000000000e-01 0.000000000000e+00 0.000000000000e+00
1.100000000000e-01 0.000000000000e+00 0.000000000000e+00
1.150000000000e-01 0.000000000000e+00 0.000000000000e+00
1.200000000000e-01 0.000000000000e+00 0.000000000000e+00
1.250000000000e-01 0.000000000000e+00 0.000000000000e+00
1.300000000000e-01 0.000000000000e+00 0.000000000000e+00
1.350000000000e-01 0.000000000000e+00 0.000000000000e+00
1.400000000000e-01 0.000000000000e+00 0.000000000000e+00
1.450000000000e-01 0.000000000000e+00 0.000000000000e+00
1.500000000000e-01 0.000000000000e+00 0.000000000000e+00
1.550000000000e-01 0.000000000000e+00 0.000000000000e+00
1.600000000000e-01 0.000000000000e+00 0.000000000000e+00
1.650000000000e-01 0.000000000000e+00 0.000000000000e+00
1.700000000000e-01 0.000000000000e+00 0.000000000000e+00
1.750000000000e-01 0.000000000000e+00 0.000000000000e+00
1.800000000000e-01 0.000000000000e+00 0.000000000000e+00
1.850000000000e-01 0.000000000000e+00 0.000000000000e+00
1.900000000000e-01 0.000000000000e+00 0.000000000000e+00
1.950000000000e-01 0.000000000000e+00 0.000000000000e+00
2.000000000000e-01 0.000000000000e+00 0.000000000000e+00
2.050000000000e-01 0.000000000000e+00 0.000000000000e+00
2.100000000000e-01 0.000000000000e+00 0.000000000000e+00
2.150000000000e-01 0.000000000000e+00 0.000000000000e+00
2.200000000000e-01 0.000000000000e+00 0.000000000000e+00
2.250000000000e-01 0.000000000000e+00 0.000000000000e+00
2.300000000000e-01 0.000000000000e+00 0.000000000000e+00
2.350000000000e-01 0.000000000000e+00 0.000000000000e+00
2.400000000000e-01 0.000000000000e+00 0.000000000000e+00
2.450000000000e-01 0.000000000000e+00 0.000000000000e+00
2.500000000000e-01 0.000000000000e+00 0.000000000000e+00
2.550000000000e-01 0.000000000000e+00 0.000000000000e+00
2.600000000000e-01 0.000000000000e+00 0.000000000000e+00
2.650000000000e-01 0.000000000000e+00 0.000000000000e+00
2.700000000000e-01 0.000000000000e+00 0.000000000000e+00
2.750000000000e-01 0.000000000000e+00 0.000000000000e+00
2.800000000000e-01 0.000000000000e+00 0.000000000000e+00
2.850000000000e-01 0.000000000000e+00 0.000000000000e+00
2.900000000000e-01 0.000000000000e+00 0.000000000000e+00
2.950000000000e-01 0.000000000000e+00 0.000000000000e+00
3.000000000000e-01 0.000000000000e+00 0.000000000000e+00
3.050000000000e-01 0.000000000000e+00 0.000000000000e+00
3.100000000000e-01 0.000000000000e+00 0.000000000000e+00
3.150000000000e-01 0.000000000000e+00 0.000000000000e+00
3.200000000000e-01 0.000000000000e+00 0.000000000000e+00
3.250000000000e-01 0.000000000000e+00 0.000000000000e+00
3.300000000000e-01 0.000000000000e+00 0.000000000000e+00
3.350000000000e-01 0.000000000000e+00 0.000000000000e+00
3.400000000000e-01 0.000000000000e+00 0.000000000000e+00
3.450000000000e-01 0.000000000000e+00 0.000000000000e+00
3.500000000000e-01 0.000000000000e+00 0.000000000000e+00
3.550000000000e-01 0.000000000000e+00 0.000000000000e+00
3.600000000000e-01 0.000000000000e+00 0.000000000000e+00
3.650000000000e-01 0.000000000000e+00 0.000000000000e+00
3.700000000000e-01 0.000000000000e+00 0.000000000000e+00
3.750000000000e-01 0.000000000000e+00 0.000000000000e+00
3.800000000000e-01 0.000000000000e+00 0.000000000000e+00
3.850000000000e-01 0.000000000000e+00 0.000000000000e+00
3.900000000000e-01 0.000000000000e+00 0.000000000000e+00
3.950000000000e-01 0.000000000000e+00 0.000000000000e+00
4.000000000000e-01 0.000000000000e+00 0.000000000000e+00
4.050000000000e-01 0.000000000000e+00 0.000000000000e+00
4.100000000000e-01 0.000000000000e+00 0.000000000000e+00
4.150000000000e-01 0.000000000000e+00 0.000000000000e+00
4.200000000000e-01 0.000000000000e+00 0.000000000000e+00
4.250000000000e-01 0.000000000000e+00 0.000000000000e+00
4.300000000000e-01 0.000000000000e+00 0.000000000000e+00
4.350000000000e-01 0.000000000000e+00 0.000000000000e+00
4.400000000000e-01 0.000000000000e+00 0.000000000000e+00
4.450000000000e-01 0.000000000000e+00 0.000000000000e+00
4.500000000000e-01 0.000000000000e+00 0.000000000000e+00
4.550000000000e-01 0.000000000000e+00 0.000000000000e+00
4.600000000000e-01 0.000000000000e+00 0.000000000000e+00
4.650000000000e-01 0.000000000000e+00 0.000000000000e+00
4.700000000000e-01 0.000000000000e+00 0.000000000000e+00
4.750000000000e-01 0.000000000000e+00 0.000000000000e+00
4.800000000000e-01 0.000000000000e+00 0.000000000000e+00
4.850000000000e-01 0.000000000000e+00 0.000000000000e+00
4.900000000000e-01 0.000000000000e+00 0.000000000000e+00
4.950000000000e-01 0.000000000000e+00 0.000000000000e+00
5.000000000000e-01 0.000000000000e+00 0.000000000000e+00
CELLS 100 300
2 0 1
2 2 3
2 4 5
2 6 7
2 8 9
2 10 11
2 12 13
2 14 15
2 16 17
2 18 19
2 20 21
2 22 23
2 24 25
2 26 27
2 28 29
2 30 31
2 32 33
2 34 35
2 36 37
2 38 39
2 40 41
2 42 43
2 44 45
2 46 47
2 48 49
2 50 51
2 52 53
2 54 55
2 56 57
2 58 59
2 60 61
2 62 63
2 64 65
2 66 67
2 68 69
2 70 71
2 72 73
2 74 75
2 76 77
2 78 79
2 80 81
2 82 83
2 84 85
2 86 87
2 88 89
2 90 91
2 92 93
2 94 95
2 96 97
2 98 99
2 1 2
2 3 4
2 5 6
2 7 8
2 9 10
2 11 12
2 13 14
2 15 16
2 17 18
2 19 20
2 21 22
2 23 24
2 25 26
2 27 28
2 29 30
2 31 32
2 33 34
2 35 36
2 37 38
2 39 40
2 41 42
2 43 44
2 45 46
2 47 48
2 49 50
2 51 52
2 53 54
2 55 56
2 57 58
2 59 60
2 61 62
2 63 64
2 65 66
2 67 68
2 69 70
2 71 72
2 73 74
2 75 76
2 77 78
2 79 80
2 81 82
2 83 84
2 85 86
2 87 88
2 89 90
2 91 92
2 93 94
2 95 96
2 97 98
2 99 100

CELL_TYPES 100
3
3
3
3
3
3
3
3
3
3
3
3
3
3
3
3
3
3
3
3
3
3
3
3
3
3
3
3
3
3
3
3
3
3
3
3
3
3
3
3
3
3
3
3
3
3
3
3
3
3
3
3
3
3
3
3
3
3
3
3
3
3
3
3
3
3
3
3
3
3
3
3
3
3
3
3
3
3
3
3
3
3
3
3
3
3
3
3
3
3
3
3
3
3
3
3
3
3
3
3

POINT_DATA 101
SCALARS 1-C double 1
LOOKUP_TABLE default
9.970358361137e-06
1.736900026087e-03
5.002035855801e-03
1.075996772987e-02
2.061059369597e-02
3.783115094870e-02
6.939981756645e-02
1.127582594318e-01
1.337212365156e-01
1.299628798096e-01
1.256954553004e-01
1.210790056217e-01
1.163316570822e-01
1.117190252162e-01
1.073864248843e-01
1.035689049360e-01
1.013496140388e-01
1.010662083526e-01
1.054222380884e-01
1.080635656539e-01
1.106383236473e-01
1.130093756328e-01
1.151167844778e-01
1.169237191891e-01
1.184148263880e-01
1.195919088031e-01
1.204836379930e-01
1.211511744314e-01
1.215942073276e-01
1.219182558259e-01
1.221119441726e-01
1.222310625231e-01
1.223067840411e-01
1.223473919283e-01
1.223801581073e-01
1.223811505115e-01
1.223904487544e-01
1.223872462792e-01
1.223959138764e-01
1.223915320116e-01
1.223911765947e-01
1.223960655415e-01
1.223956225903e-01
1.223975850307e-01
1.223911664744e-01
1.223911189675e-01
1.223968097077e-01
1.223828475456e-01
1.223938848047e-01
1.224052681566e-01
1.223889774600e-01
1.224017979607e-01
1.223906223895e-01
1.223963515648e-01
1.224001951592e-01
1.223939962823e-01
1.223920601812e-01
1.223982881719e-01
1.223861974132e-01
1.223950783443e-01
1.223926881263e-01
1.223937623877e-01
1.223957710225e-01
1.223923288754e-01
1.223944058221e-01
1.223930690687e-01
1.224004215696e-01
1.223973691654e-01
1.223901578484e-01
1.223906425191e-01
1.223941666624e-01
1.223873495291e-01
1.223951788828e-01
1.223853457858e-01
1.223823311090e-01
1.223940032204e-01
1.223949261913e-01
1.223944514328e-01
1.223892881869e-01
1.223958666013e-01
1.223939172242e-01
1.223934104681e-01
1.223995589423e-01
1.223917278787e-01
1.223825828743e-01
1.223996316901e-01
1.223930636333e-01
1.223870808639e-01
1.223945654543e-01
1.223869059196e-01
1.223955178235e-01
1.223899547580e-01
1.223958881259e-01
1.223908240276e-01
1.223940592408e-01
1.223978114405e-01
1.223930679359e-01
1.223877484447e-01
1.223922957393e-01
1.224013870510e-01
1.223937178858e-01
SCALARS 2-Ca double 1
LOOKUP_TABLE default
9.970358361137e-06
1.259747521309e-03
3.600770182256e-03
7.667620819389e-03
1.446213858461e-02
2.587162404820e-02
4.567971614529e-02
7.294331881183e-02
9.093983970632e-02
9.890024308730e-02
1.093390321224e-01
1.227521485288e-01
1.396417631890e-01
1.604809179871e-01
1.861626395212e-01
2.179188985040e-01
2.490552362902e-01
2.740260664335e-01
2.443083501562e-01
2.232264324144e-01
2.044353459800e-01
1.881874896899e-01
1.744004473200e-01
1.629052110650e-01
1.534872629763e-01
1.458977765273e-01
1.398850112763e-01
1.352216781473e-01
1.316288260968e-01
1.289560006645e-01
1.269664367526e-01
1.255246991578e-01
1.245050454243e-01
1.237908713870e-01
1.233128326322e-01
1.229742158495e-01
1.227616385970e-01
1.226159545695e-01
1.225346641017e-01
1.224744268029e-01
1.224399564018e-01
1.224243437028e-01
1.224117751224e-01
1.224066776583e-01
1.223962116839e-01
1.223938788597e-01
1.223982984193e-01
1.223836395309e-01
1.223943004226e-01
1.224054833477e-01
1.223890874086e-01
1.224018534069e-01
1.223906499923e-01
1.223963651327e-01
1.224002017453e-01
1.223939994401e-01
1.223920616770e-01
1.223982888720e-01
1.223861977370e-01
1.223950784923e-01
1.223926881932e-01
1.223937624176e-01
1.223957710357e-01
1.223923288811e-01
1.223944058246e-01
1.223930690698e-01
1.224004215700e-01
1.223973691656e-01
1.223901578485e-01
1.223906425191e-01
1.223941666624e-01
1.223873495291e-01
1.223951788828e-01
1.223853457858e-01
1.223823311090e-01
1.223940032204e-01
1.223949261913e-01
1.223944514328e-01
1.223892881869e-01
1.223958666013e-01
1.223939172242e-01
1.223934104681e-01
1.223995589423e-01
1.223917278787e-01
1.223825828743e-01
1.223996316901e-01
1.223930636333e-01
1.223870808639e-01
1.223945654543e-01
1.223869059196e-01
1.223955178235e-01
1.223899547580e-01
1.223958881259e-01
1.223908240276e-01
1.223940592408e-01
1.223978114405e-01
1.223930679359e-01
1.223877484447e-01
1.223922957393e-01
1.224013870510e-01
1.223937178858e-01
SCALARS 3-Cl double 1
LOOKUP_TABLE default
3.988143344455e+00
3.982213002151e+00
3.971423113004e+00
3.953564204782e+00
3.925953863065e+00
3.885524490249e+00
3.828990145108e+00
3.753090174156e+00
3.654897578107e+00
3.532155834780e+00
3.383612411858e+00
3.209287750748e+00
3.010647044685e+00
2.790634705288e+00
2.553556695518e+00
2.304817101639e+00
2.050537073915e+00
1.797101602226e+00
1.550691967112e+00
1.316854367361e+00
1.100158463477e+00
9.039726369846e-01
7.303704627921e-01
5.801620265399e-01
4.530289651196e-01
3.477323215723e-01
2.623587310254e-01
1.945724579843e-01
1.418469259561e-01
1.016577512937e-01
7.162808627478e-02
4.962486140436e-02
3.381038352198e-02
2.265738758080e-02
1.493717363512e-02
9.690322129374e-03
6.188225555184e-03
3.891847109681e-03
2.412163678823e-03
1.474976876243e-03
8.913496102340e-04
5.338996937221e-04
3.185316001861e-04
1.908440442556e-04
1.163314675144e-04
7.352243732983e-05
4.930237303152e-05
3.580476216465e-05
2.839360253049e-05
2.438339001404e-05
2.224442714950e-05
2.111957665767e-05
2.053621006789e-05
2.023778081815e-05
2.008715805044e-05
2.001213682495e-05
1.997525476537e-05
1.995735384571e-05
1.994877447296e-05
1.994471338106e-05
1.994281437029e-05
1.994193698227e-05
1.994153637013e-05
1.994135557325e-05
1.994127489703e-05
1.994123930999e-05
1.994122378120e-05
1.994121707798e-05
1.994121421524e-05
1.994121300595e-05
1.994121249938e-05
1.994121228966e-05
1.994121220418e-05
1.994121216992e-05
1.994121215159e-05
1.994121215057e-05
1.994121215021e-05
1.994121214655e-05
1.994121214584e-05
1.994121214736e-05
1.994121215120e-05
1.994121213996e-05
1.994121215488e-05
1.994121214756e-05
1.994121214404e-05
1.994121214969e-05
1.994121214920e-05
1.994121214342e-05
1.994121214780e-05
1.994121214701e-05
1.994121214892e-05
1.994121214722e-05
1.994121214785e-05
1.994121214620e-05
1.994121215115e-05
1.994121214892e-05
1.994121214724e-05
1.994121214541e-05
1.994121215010e-05
1.994121214976e-05
1.994121214375e-05
SCALARS 4-H double 1
LOOKUP_TABLE default
2.701109245634e-04
3.451957757352e-03
9.678127270891e-03
2.008544203465e-02
3.647286194482e-02
6.192573370715e-02
1.015734637541e-01
1.469520628029e-01
1.663481860880e-01
1.629619246858e-01
1.590623085896e-01
1.547599727333e-01
1.502615694666e-01
1.458004884092e-01
1.415015052501e-01
1.375643190959e-01
1.352203836437e-01
1.348894360719e-01
1.401326836271e-01
1.436287878718e-01
1.471021670182e-01
1.503580624359e-01
1.533778560141e-01
1.560659623273e-01
1.583693455384e-01
1.602828708243e-01
1.618278137644e-01
1.630503421533e-01
1.639584512352e-01
1.646300120811e-01
1.651162759456e-01
1.654566983142e-01
1.656842212331e-01
1.658189194385e-01
1.659390399222e-01
1.659892709215e-01
1.660451094873e-01
1.660576779731e-01
1.660702846367e-01
1.660785897050e-01
1.661054237233e-01
1.660948664471e-01
1.660933483477e-01
1.661042920134e-01
1.660920795531e-01
1.660979928102e-01
1.660989467971e-01
1.661009173770e-01
1.661045323575e-01
1.661049684466e-01
1.661009748784e-01
1.661109009487e-01
1.660976820524e-01
1.661163193651e-01
1.661157902080e-01
1.660922440622e-01
1.660919769661e-01
1.660941500500e-01
1.660914236623e-01
1.660962460914e-01
1.661052955344e-01
1.660930684224e-01
1.661040455991e-01
1.661011124312e-01
1.661085650503e-01
1.660962145191e-01
1.661124746948e-01
1.661083603011e-01
1.660913671259e-01
1.661014358729e-01
1.661146091582e-01
1.660958635428e-01
1.661132382945e-01
1.660926893050e-01
1.660992554701e-01
1.661101104041e-01
1.661153841539e-01
1.661097306991e-01
1.661099163894e-01
1.661040974718e-01
1.660942335186e-01
1.660961345702e-01
1.661068339675e-01
1.660983916981e-01
1.661020370015e-01
1.660954567614e-01
1.661094292597e-01
1.660904944133e-01
1.661019379432e-01
1.660929257985e-01
1.660921540616e-01
1.660907216172e-01
1.660965083319e-01
1.660949241516e-01
1.660927745052e-01
1.661131701472e-01
1.661121958531e-01
1.661005495907e-01
1.660976341216e-01
1.661106158509e-01
1.661131024231e-01
SCALARS 5-Mg double 1
LOOKUP_TABLE default
1.994071672227e+00
1.991583653580e+00
1.987112822176e+00
1.979874449302e+00
1.969125386644e+00
1.954721772025e+00
1.938215173975e+00
1.916360027698e+00
1.870230185862e+00
1.797140554112e+00
1.708162629107e+00
1.602970732467e+00
1.482013416236e+00
1.346555459873e+00
1.198002133122e+00
1.038058557252e+00
8.775629147062e-01
7.255909430322e-01
6.364598714882e-01
5.432643169201e-01
4.562822094059e-01
3.768082044352e-01
3.059015685540e-01
2.440995213940e-01
1.914420459716e-01
1.475602930620e-01
1.117779922295e-01
8.321572527624e-02
6.088884420892e-02
4.379113080829e-02
3.095955055733e-02
2.151879406738e-02
1.470693037772e-02
9.885214331578e-03
6.535912292605e-03
4.252095726553e-03
2.722922934804e-03
1.717215264445e-03
1.067331614003e-03
6.545936468239e-04
3.968949979695e-04
2.386716854919e-04
1.431132679769e-04
8.632939447066e-05
5.312052425337e-05
3.400132639364e-05
2.316247484275e-05
1.711039575583e-05
1.378118332514e-05
1.197650383975e-05
1.101226496220e-05
1.050434209801e-05
1.024050226559e-05
1.010532251466e-05
1.003699287312e-05
1.000291057202e-05
9.986131606259e-06
9.977976856108e-06
9.974063429736e-06
9.972208649331e-06
9.971340272954e-06
9.970938587172e-06
9.970754968249e-06
9.970672008690e-06
9.970634949673e-06
9.970618585709e-06
9.970611437796e-06
9.970608349207e-06
9.970607028880e-06
9.970606470627e-06
9.970606236532e-06
9.970606139532e-06
9.970606099977e-06
9.970606084122e-06
9.970606075468e-06
9.970606075158e-06
9.970606075058e-06
9.970606073256e-06
9.970606072914e-06
9.970606073677e-06
9.970606075597e-06
9.970606069980e-06
9.970606077440e-06
9.970606073778e-06
9.970606072020e-06
9.970606074844e-06
9.970606074598e-06
9.970606071711e-06
9.970606073900e-06
9.970606073506e-06
9.970606074462e-06
9.970606073612e-06
9.970606073926e-06
9.970606073098e-06
9.970606075573e-06
9.970606074462e-06
9.970606073619e-06
9.970606072703e-06
9.970606075052e-06
9.970606074881e-06
9.970606071877e-06
SCALARS 6-O double 1
LOOKUP_TABLE default
2.010568337471e-02
2.714424838649e-02
4.053826318500e-02
6.381933024300e-02
1.028073283366e-01
1.690146844723e-01
2.860885102158e-01
4.422685038426e-01
5.192740146502e-01
5.118289579698e-01
5.037610881947e-01
4.956049497500e-01
4.880523348966e-01
4.818843078428e-01
4.774054511173e-01
4.751775953452e-01
4.787904775519e-01
4.891795886289e-01
5.159580895375e-01
5.361532765244e-01
5.553661035767e-01
5.729361775691e-01
5.885810385770e-01
6.021059193002e-01
6.134525430226e-01
6.226794833456e-01
6.299694795346e-01
6.356341962364e-01
6.397903911060e-01
6.429071557000e-01
6.450829508291e-01
6.466008698290e-01
6.476536071294e-01
6.483447848977e-01
6.488506417929e-01
6.491149064575e-01
6.493283596971e-01
6.494284045436e-01
6.495273174521e-01
6.495605117356e-01
6.495991347519e-01
6.496246140444e-01
6.496322214828e-01
6.496493287236e-01
6.496273212699e-01
6.496320625843e-01
6.496507021964e-01
6.496104085964e-01
6.496456615494e-01
6.496802102693e-01
6.496294376471e-01
6.496729128877e-01
6.496328029066e-01
6.496593224577e-01
6.496705955447e-01
6.496402291971e-01
6.496342890146e-01
6.496540603284e-01
6.496164252348e-01
6.496454794110e-01
6.496428335956e-01
6.496399428498e-01
6.496514573317e-01
6.496396644134e-01
6.496496214390e-01
6.496394360133e-01
6.496696235975e-01
6.496584091603e-01
6.496282786432e-01
6.496347669912e-01
6.496519260916e-01
6.496221018621e-01
6.496542773201e-01
6.496145035481e-01
6.496087425415e-01
6.496491863862e-01
6.496545922323e-01
6.496503411691e-01
6.496349442650e-01
6.496517700496e-01
6.496409899782e-01
6.496404201367e-01
6.496642154046e-01
6.496365010096e-01
6.496108886304e-01
6.496587449825e-01
6.496460270620e-01
6.496186112874e-01
6.496467868681e-01
6.496193021843e-01
6.496447520467e-01
6.496273466031e-01
6.496480400794e-01
6.496320556439e-01
6.496406865335e-01
6.496621409485e-01
6.496474232916e-01
6.496256416422e-01
6.496378258499e-01
6.496715906249e-01
6.496498263445e-01
SCALARS 7-Sn double 1
LOOKUP_TABLE default
0.000000000000e+00
0.000000000000e+00
0.000000000000e+00
0.000000000000e+00
0.000000000000e+00
0.000000000000e+00
0.000000000000e+00
0.000000000000e+00
0.000000000000e+00
0.000000000000e+00
0.000000000000e+00
0.000000000000e+00
0.000000000000e+00
0.000000000000e+00
0.000000000000e+00
0.000000000000e+00
0.000000000000e+00
0.000000000000e+00
0.000000000000e+00
0.000000000000e+00
0.000000000000e+00
0.000000000000e+00
0.000000000000e+00
0.000000000000e+00
0.000000000000e+00
0.000000000000e+00
0.000000000000e+00
0.000000000000e+00
0.000000000000e+00
0.000000000000e+00
0.000000000000e+00
0.000000000000e+00
0.000000000000e+00
0.000000000000e+00
0.000000000000e+00
0.000000000000e+00
0.000000000000e+00
0.000000000000e+00
0.000000000000e+00
0.000000000000e+00
0.000000000000e+00
0.000000000000e+00
0.000000000000e+00
0.000000000000e+00
0.000000000000e+00
0.000000000000e+00
0.000000000000e+00
0.000000000000e+00
0.000000000000e+00
0.000000000000e+00
0.000000000000e+00
0.000000000000e+00
0.000000000000e+00
0.000000000000e+00
0.000000000000e+00
0.000000000000e+00
0.000000000000e+00
0.000000000000e+00
0.000000000000e+00
0.000000000000e+00
0.000000000000e+00
0.000000000000e+00
0.000000000000e+00
0.000000000000e+00
0.000000000000e+00
0.000000000000e+00
0.000000000000e+00
0.000000000000e+00
0.000000000000e+00
0.000000000000e+00
0.000000000000e+00
0.000000000000e+00
0.000000000000e+00
0.000000000000e+00
0.000000000000e+00
0.000000000000e+00
0.000000000000e+00
0.000000000000e+00
0.000000000000e+00
0.000000000000e+00
0.000000000000e+00
0.000000000000e+00
0.000000000000e+00
0.000000000000e+00
0.000000000000e+00
0.000000000000e+00
0.000000000000e+00
0.000000000000e+00
0.000000000000e+00
0.000000000000e+00
0.000000000000e+00
0.000000000000e+00
0.000000000000e+00
0.000000000000e+00
0.000000000000e+00
0.000000000000e+00
0.000000000000e+00
0.000000000000e+00
0.000000000000e+00
0.000000000000e+00
0.000000000000e+00
SCALARS 8-Zz double 1
LOOKUP_TABLE default
1.035722930241e-15
-1.667390383539e-15
-1.133461053883e-16
-3.835839956867e-16
-2.079034376660e-17
1.005587989960e-16
2.151220602272e-17
6.084775963478e-16
2.906576333824e-16
-6.008171722453e-16
-1.560639276493e-16
2.938284581210e-16
-5.424288781709e-16
1.866194815748e-16
-7.537589406169e-17
-2.112147747868e-16
1.677002372785e-16
-3.001612045897e-16
-1.091206216531e-16
1.349599889339e-17
-1.989524204436e-16
-7.660899330052e-17
2.125727051161e-16
1.428034088480e-17
1.386144228893e-16
-9.517414823313e-18
2.457825559253e-17
5.082293111117e-17
1.743225899980e-16
7.426597537962e-17
6.977266189926e-17
9.217098746382e-19
-1.143074430448e-17
3.614273400222e-17
9.292498646157e-18
-8.577813641012e-18
1.116406114993e-17
-3.004169196968e-17
-1.276808237361e-17
-2.735902902962e-17
4.812132802890e-17
-2.241587703094e-17
-6.947734085023e-18
2.979953440807e-17
4.969578095654e-18
3.772770115716e-18
-7.480486695440e-18
1.934560580858e-17
2.006849131605e-17
-4.610774836061e-17
1.063661203204e-17
-3.907210613162e-17
2.440925406914e-17
-3.759909614784e-18
-1.954879855727e-17
-4.736553253168e-17
2.702160577937e-18
-2.522243901485e-17
-6.057478038662e-18
-2.234783443922e-17
-4.262148049027e-17
-1.972504412283e-17
1.054321633742e-17
-3.848614863780e-18
3.370953932564e-17
-4.729842498403e-18
2.247276052700e-18
-4.424412587533e-17
-2.524353082175e-17
7.371793267830e-18
1.336686951402e-17
2.174398880961e-17
-9.695941052786e-18
-2.976360472975e-17
-1.950120398302e-17
5.931984724193e-18
1.329467294577e-17
-9.855984493704e-18
-1.413405409454e-17
-1.623595601394e-17
-2.981595102051e-17
3.243389759171e-18
2.650701723090e-17
-8.500022111238e-18
-1.109160390265e-18
-8.714481254952e-18
-4.161083558630e-18
8.603963746931e-19
-3.753747628386e-17
-8.653244444722e-18
1.821472507242e-17
-1.269709669207e-18
-8.194911033836e-18
-2.803680335839e-18
-4.924911237546e-18
4.285411909143e-18
5.055493574865e-18
6.825858250218e-18
1.930262501418e-17
1.541441709758e-17
-5.304105781354e-17
SCALARS C double 1
LOOKUP_TABLE default
 3.190559220786e-06
 5.558110224037e-04
 1.600660153927e-03
 3.443208345412e-03
 6.595425748431e-03
 1.210603395227e-02
 2.220806205130e-02
 3.608283868843e-02
 1.066592442608e-01
 1.166964616660e-01
 1.166412805012e-01
 1.149503349744e-01
 1.129048609874e-01
 1.107934719783e-01
 1.087128621523e-01
 1.068045023282e-01
 1.052279058916e-01
 1.025956815934e-01
 1.033991127323e-01
 1.043695030830e-01
 1.050973721313e-01
 1.057846986126e-01
 1.063757022417e-01
 1.069213042392e-01
 1.073780819285e-01
 1.077172733493e-01
 1.080292889608e-01
 1.081989061539e-01
 1.083638892155e-01
 1.085247268287e-01
 1.085334054690e-01
 1.085730321404e-01
 1.086018267472e-01
 1.086354379957e-01
 1.086174607524e-01
 1.086272524357e-01
 1.086631150674e-01
 1.086317393185e-01
 1.086481416297e-01
 1.086405932940e-01
 1.086185876435e-01
 1.086525175045e-01
 1.086457987166e-01
 1.086408021690e-01
 1.086372213758e-01
 1.086148172644e-01
 1.086636963764e-01
 1.086637273610e-01
 1.086033480389e-01
 1.086548491553e-01
 1.086110516469e-01
 1.086602874142e-01
 1.086535151353e-01
 1.086026354444e-01
 1.086388345454e-01
 1.086513686289e-01
 1.086626331527e-01
 1.086266660941e-01
 1.086317039393e-01
 1.086631617937e-01
 1.086169445949e-01
 1.086615575128e-01
 1.086338329055e-01
 1.086282782154e-01
 1.086322721480e-01
 1.086559234433e-01
 1.086300899016e-01
 1.086487068925e-01
 1.086193439412e-01
 1.086634163718e-01
 1.086321755226e-01
 1.086314849291e-01
 1.086442812942e-01
 1.086461539481e-01
 1.086395502934e-01
 1.086264512189e-01
 1.086461555533e-01
 1.086401656312e-01
 1.086203968644e-01
 1.086615926534e-01
 1.086252401017e-01
 1.086451444274e-01
 1.086438463518e-01
 1.086271434117e-01
 1.086618419945e-01
 1.086373244702e-01
 1.086368581210e-01
 1.086299740659e-01
 1.086447801018e-01
 1.086408007791e-01
 1.086313907105e-01
 1.086481025656e-01
 1.086247868007e-01
 1.086815156803e-01
 1.086241931512e-01
 1.086224222069e-01
 1.086413075768e-01
 1.086363952482e-01
 1.086291266125e-01
 1.086972767323e-01
 1.085410253170e-01
SCALARS Ca double 1
LOOKUP_TABLE default
 3.190559220786e-06
 4.031213928685e-04
 1.152252706766e-03
 2.453651967885e-03
 4.627909443334e-03
 8.278964590652e-03
 1.461758843485e-02
 2.334198859888e-02
 6.103496526596e-02
 6.920222469136e-02
 7.319782397565e-02
 7.738316944097e-02
 8.252467245241e-02
 8.887551449294e-02
 9.674656052791e-02
 1.065651681914e-01
 1.160955696252e-01
 1.478760417113e-01
 1.478425522539e-01
 1.412215234460e-01
 1.351123406064e-01
 1.298416322542e-01
 1.253464249664e-01
 1.216353433912e-01
 1.186012324892e-01
 1.161351291955e-01
 1.142377122953e-01
 1.127014556779e-01
 1.115749588939e-01
 1.107767993216e-01
 1.100868390652e-01
 1.096269931294e-01
 1.093052685647e-01
 1.090973502229e-01
 1.089159158262e-01
 1.088170328514e-01
 1.087818955084e-01
 1.087049257815e-01
 1.086925415865e-01
 1.086671195584e-01
 1.086341971413e-01
 1.086615664926e-01
 1.086509675134e-01
 1.086437118023e-01
 1.086388358387e-01
 1.086157004276e-01
 1.086641727629e-01
 1.086639807957e-01
 1.086034810363e-01
 1.086549180163e-01
 1.086110868304e-01
 1.086603051569e-01
 1.086535239682e-01
 1.086026397861e-01
 1.086388366530e-01
 1.086513696394e-01
 1.086626336313e-01
 1.086266663181e-01
 1.086317040430e-01
 1.086631618410e-01
 1.086169446163e-01
 1.086615575224e-01
 1.086338329097e-01
 1.086282782173e-01
 1.086322721488e-01
 1.086559234436e-01
 1.086300899017e-01
 1.086487068926e-01
 1.086193439412e-01
 1.086634163718e-01
 1.086321755226e-01
 1.086314849291e-01
 1.086442812942e-01
 1.086461539481e-01
 1.086395502934e-01
 1.086264512189e-01
 1.086461555533e-01
 1.086401656312e-01
 1.086203968644e-01
 1.086615926534e-01
 1.086252401017e-01
 1.086451444274e-01
 1.086438463518e-01
 1.086271434117e-01
 1.086618419945e-01
 1.086373244702e-01
 1.086368581210e-01
 1.086299740659e-01
 1.086447801018e-01
 1.086408007791e-01
 1.086313907105e-01
 1.086481025656e-01
 1.086247868007e-01
 1.086815156803e-01
 1.086241931512e-01
 1.086224222069e-01
 1.086413075768e-01
 1.086363952482e-01
 1.086291266125e-01
 1.086972767323e-01
 1.085410253170e-01
SCALARS Cl double 1
LOOKUP_TABLE default
 1.276223688314e+00
 1.274315071053e+00
 1.270862287802e+00
 1.265147406181e+00
 1.256312048919e+00
 1.243374579460e+00
 1.225283490910e+00
 1.200995368496e+00
 1.169566051997e+00
 1.130287455344e+00
 1.082753518687e+00
 1.026969775596e+00
 9.634049433184e-01
 8.930012060609e-01
 8.171364613872e-01
 7.375400060681e-01
 6.561706161829e-01
 5.750711396137e-01
 4.962201305145e-01
 4.213922883842e-01
 3.520497855647e-01
 2.892704880203e-01
 2.337179396769e-01
 1.856513659024e-01
 1.449688923407e-01
 1.112740543954e-01
 8.395457599510e-02
 6.226302524600e-02
 4.539089858710e-02
 3.253039583361e-02
 2.292092815358e-02
 1.587991445589e-02
 1.081929465540e-02
 7.250345196928e-03
 4.779883165728e-03
 3.100895035265e-03
 1.980227031892e-03
 1.245387843228e-03
 7.718903728988e-04
 4.719913751391e-04
 2.852311355542e-04
 1.708474582757e-04
 1.019298474105e-04
 6.106993564042e-05
 3.722597298240e-05
 2.352711894032e-05
 1.577671837576e-05
 1.145749411551e-05
 9.085929263129e-06
 7.802664540408e-06
 7.118198233064e-06
 6.758246973687e-06
 6.571570152338e-06
 6.476073079870e-06
 6.427873893163e-06
 6.403867152583e-06
 6.392064915399e-06
 6.386336663975e-06
 6.383591265255e-06
 6.382291698138e-06
 6.381684049751e-06
 6.381403253706e-06
 6.381275079049e-06
 6.381217227477e-06
 6.381191408699e-06
 6.381180003144e-06
 6.381175054703e-06
 6.381172895247e-06
 6.381171999100e-06
 6.381171579780e-06
 6.381171441518e-06
 6.381171373312e-06
 6.381171338379e-06
 6.381171323716e-06
 6.381171322006e-06
 6.381171334078e-06
 6.381171319669e-06
 6.381171322796e-06
 6.381171335912e-06
 6.381171307607e-06
 6.381171335150e-06
 6.381171316775e-06
 6.381171323955e-06
 6.381171332067e-06
 6.381171303231e-06
 6.381171327114e-06
 6.381171325752e-06
 6.381171327564e-06
 6.381171319825e-06
 6.381171320698e-06
 6.381171330270e-06
 6.381171316106e-06
 6.381171334878e-06
 6.381171291373e-06
 6.381171335939e-06
 6.381171337416e-06
 6.381171321849e-06
 6.381171323627e-06
 6.381171331556e-06
 6.381171283395e-06
 6.381171394747e-06
SCALARS H double 1
LOOKUP_TABLE default
 3.542055048139e+04
 3.542024965867e+04
 3.542025282252e+04
 3.542025831113e+04
 3.542026745168e+04
 3.542028262882e+04
 3.542030860369e+04
 3.542034597738e+04
 3.542014909300e+04
 3.542013099244e+04
 3.542015296567e+04
 3.542018509786e+04
 3.542022284757e+04
 3.542026500636e+04
 3.542031051644e+04
 3.542035806843e+04
 3.542040858960e+04
 3.542044074247e+04
 3.542049004983e+04
 3.542054240716e+04
 3.542059198056e+04
 3.542063691530e+04
 3.542067685751e+04
 3.542071133075e+04
 3.542074052610e+04
 3.542076480860e+04
 3.542078426105e+04
 3.542079997172e+04
 3.542081192026e+04
 3.542082086750e+04
 3.542082791454e+04
 3.542083289773e+04
 3.542083645925e+04
 3.542083889152e+04
 3.542084075121e+04
 3.542084188266e+04
 3.542084253403e+04
 3.542084316764e+04
 3.542084344812e+04
 3.542084367840e+04
 3.542084389581e+04
 3.542084384780e+04
 3.542084392244e+04
 3.542084397461e+04
 3.542084399334e+04
 3.542084409392e+04
 3.542084391125e+04
 3.542084388486e+04
 3.542084415612e+04
 3.542084397022e+04
 3.542084411609e+04
 3.542084394101e+04