# vtk DataFile Version 3.0
Unstructured Grid from OpenGeoSys
ASCII
DATASET UNSTRUCTURED_GRID
FIELD TimesAndCycles 2
TIME 1 1 double
2.100000000000e+04
CYLCE 1 1 long
210
POINTS 101 double
0.000000000000e+00 0.000000000000e+00 0.000000000000e+00
5.000000000000e-03 0.000000000000e+00 0.000000000000e+00
1.000000000000e-02 0.000000000000e+00 0.000000000000e+00
1.500000000000e-02 0.000000000000e+00 0.000000000000e+00
2.000000000000e-02 0.000000000000e+00 0.000000000000e+00
2.500000000000e-02 0.000000000000e+00 0.000000000000e+00
3.000000000000e-02 0.000000000000e+00 0.000000000000e+00
3.500000000000e-02 0.000000000000e+00 0.000000000000e+00
4.000000000000e-02 0.000000000000e+00 0.000000000000e+00
4.500000000000e-02 0.000000000000e+00 0.000000000000e+00
5.000000000000e-02 0.000000000000e+00 0.000000000000e+00
5.500000000000e-02 0.000000000000e+00 0.000000000000e+00
6.000000000000e-02 0.000000000000e+00 0.000000000000e+00
6.500000000000e-02 0.000000000000e+00 0.000000000000e+00
7.000000000000e-02 0.000000000000e+00 0.000000000000e+00
7.500000000000e-02 0.000000000000e+00 0.000000000000e+00
8.000000000000e-02 0.000000000000e+00 0.000000000000e+00
8.500000000000e-02 0.000000000000e+00 0.000000000000e+00
9.000000000000e-02 0.000000000000e+00 0.000000000000e+00
9.500000000000e-02 0.000000000000e+00 0.000000000000e+00
1.000000000000e-01 0.000000000000e+00 0.000000000000e+00
1.050000000000e-01 0.000000000000e+00 0.000000000000e+00
1.100000000000e-01 0.000000000000e+00 0.000000000000e+00
1.150000000000e-01 0.000000000000e+00 0.000000000000e+00
1.200000000000e-01 0.000000000000e+00 0.000000000000e+00
1.250000000000e-01 0.000000000000e+00 0.000000000000e+00
1.300000000000e-01 0.000000000000e+00 0.000000000000e+00
1.350000000000e-01 0.000000000000e+00 0.000000000000e+00
1.400000000000e-01 0.000000000000e+00 0.000000000000e+00
1.450000000000e-01 0.000000000000e+00 0.000000000000e+00
1.500000000000e-01 0.000000000000e+00 0.000000000000e+00
1.550000000000e-01 0.000000000000e+00 0.000000000000e+00
1.600000000000e-01 0.000000000000e+00 0.000000000000e+00
1.650000000000e-01 0.000000000000e+00 0.000000000000e+00
1.700000000000e-01 0.000000000000e+00 0.000000000000e+00
1.750000000000e-01 0.000000000000e+00 0.000000000000e+00
1.800000000000e-01 0.000000000000e+00 0.000000000000e+00
1.850000000000e-01 0.000000000000e+00 0.000000000000e+00
1.900000000000e-01 0.000000000000e+00 0.000000000000e+00
1.950000000000e-01 0.000000000000e+00 0.000000000000e+00
2.000000000000e-01 0.000000000000e+00 0.000000000000e+00
2.050000000000e-01 0.000000000000e+00 0.000000000000e+00
2.100000000000e-01 0.000000000000e+00 0.000000000000e+00
2.150000000000e-01 0.000000000000e+00 0.000000000000e+00
2.200000000000e-01 0.000000000000e+00 0.000000000000e+00
2.250000000000e-01 0.000000000000e+00 0.000000000000e+00
2.300000000000e-01 0.000000000000e+00 0.000000000000e+00
2.350000000000e-01 0.000000000000e+00 0.000000000000e+00
2.400000000000e-01 0.000000000000e+00 0.000000000000e+00
2.450000000000e-01 0.000000000000e+00 0.000000000000e+00
2.500000000000e-01 0.000000000000e+00 0.000000000000e+00
2.550000000000e-01 0.000000000000e+00 0.000000000000e+00
2.600000000000e-01 0.000000000000e+00 0.000000000000e+00
2.650000000000e-01 0.000000000000e+00 0.000000000000e+00
2.700000000000e-01 0.000000000000e+00 0.000000000000e+00
2.750000000000e-01 0.000000000000e+00 0.000000000000e+00
2.800000000000e-01 0.000000000000e+00 0.000000000000e+00
2.850000000000e-01 0.000000000000e+00 0.000000000000e+00
2.900000000000e-01 0.000000000000e+00 0.000000000000e+00
2.950000000000e-01 0.000000000000e+00 0.000000000000e+00
3.000000000000e-01 0.000000000000e+00 0.000000000000e+00
3.050000000000e-01 0.000000000000e+00 0.000000000000e+00
3.100000000000e-01 0.000000000000e+00 0.000000000000e+00
3.150000000000e-01 0.000000000000e+00 0.000000000000e+00
3.200000000000e-01 0.000000000000e+00 0.000000000000e+00
3.250000000000e-01 0.000000000000e+00 0.000000000000e+00
3.300000000000e-01 0.000000000000e+00 0.000000000000e+00
3.350000000000e-01 0.000000000000e+00 0.000000000000e+00
3.400000000000e-01 0.000000000000e+00 0.000000000000e+00
3.450000000000e-01 0.000000000000e+00 0.000000000000e+00
3.500000000000e-01 0.000000000000e+00 0.000000000000e+00
3.550000000000e-01 0.000000000000e+00 0.000000000000e+00
3.600000000000e-01 0.000000000000e+00 0.000000000000e+00
3.650000000000e-01 0.000000000000e+00 0.000000000000e+00
3.700000000000e-01 0.000000000000e+00 0.000000000000e+00
3.750000000000e-01 0.000000000000e+00 0.000000000000e+00
3.800000000000e-01 0.000000000000e+00 0.000000000000e+00
3.850000000000e-01 0.000000000000e+00 0.000000000000e+00
3.900000000000e-01 0.000000000000e+00 0.000000000000e+00
3.950000000000e-01 0.000000000000e+00 0.000000000000e+00
4.000000000000e-01 0.000000000000e+00 0.000000000000e+00
4.050000000000e-01 0.000000000000e+00 0.000000000000e+00
4.100000000000e-01 0.000000000000e+00 0.000000000000e+00
4.150000000000e-01 0.000000000000e+00 0.000000000000e+00
4.200000000000e-01 0.000000000000e+00 0.000000000000e+00
4.250000000000e-01 0.000000000000e+00 0.000000000000e+00
4.300000000000e-01 0.000000000000e+00 0.000000000000e+00
4.350000000000e-01 0.000000000000e+00 0.000000000000e+00
4.400000000000e-01 0.000000000000e+00 0.000000000000e+00
4.450000000000e-01 0.000000000000e+00 0.000000000000e+00
4.500000000000e-01 0.000000000000e+00 0.000000000000e+00
4.550000000000e-01 0.000000000000e+00 0.000000000000e+00
4.600000000000e-01 0.000000000000e+00 0.000000000000e+00
4.650000000000e-01 0.000000000000e+00 0.000000000000e+00
4.700000000000e-01 0.000000000000e+00 0.000000000000e+00
4.750000000000e-01 0.000000000000e+00 0.000000000000e+00
4.800000000000e-01 0.000000000000e+00 0.000000000000e+00
4.850000000000e-01 0.000000000000e+00 0.000000000000e+00
4.900000000000e-01 0.000000000000e+00 0.000000000000e+00
4.950000000000e-01 0.000000000000e+00 0.000000000000e+00
5.000000000000e-01 0.000000000000e+00 0.000000000000e+00
CELLS 100 300
2 0 1
2 2 3
2 4 5
2 6 7
2 8 9
2 10 11
2 12 13
2 14 15
2 16 17
2 18 19
2 20 21
2 22 23
2 24 25
2 26 27
2 28 29
2 30 31
2 32 33
2 34 35
2 36 37
2 38 39
2 40 41
2 42 43
2 44 45
2 46 47
2 48 49
2 50 51
2 52 53
2 54 55
2 56 57
2 58 59
2 60 61
2 62 63
2 64 65
2 66 67
2 68 69
2 70 71
2 72 73
2 74 75
2 76 77
2 78 79
2 80 81
2 82 83
2 84 85
2 86 87
2 88 89
2 90 91
2 92 93
2 94 95
2 96 97
2 98 99
2 1 2
2 3 4
2 5 6
2 7 8
2 9 10
2 11 12
2 13 14
2 15 16
2 17 18
2 19 20
2 21 22
2 23 24
2 25 26
2 27 28
2 29 30
2 31 32
2 33 34
2 35 36
2 37 38
2 39 40
2 41 42
2 43 44
2 45 46
2 47 48
2 49 50
2 51 52
2 53 54
2 55 56
2 57 58
2 59 60
2 61 62
2 63 64
2 65 66
2 67 68
2 69 70
2 71 72
2 73 74
2 75 76
2 77 78
2 79 80
2 81 82
2 83 84
2 85 86
2 87 88
2 89 90
2 91 92
2 93 94
2 95 96
2 97 98
2 99 100

CELL_TYPES 100
3
3
3
3
3
3
3
3
3
3
3
3
3
3
3
3
3
3
3
3
3
3
3
3
3
3
3
3
3
3
3
3
3
3
3
3
3
3
3
3
3
3
3
3
3
3
3
3
3
3
3
3
3
3
3
3
3
3
3
3
3
3
3
3
3
3
3
3
3
3
3
3
3
3
3
3
3
3
3
3
3
3
3
3
3
3
3
3
3
3
3
3
3
3
3
3
3
3
3
3

POINT_DATA 101
SCALARS 1-C double 1
LOOKUP_TABLE default
9.970358361137e-06
2.733779813400e-05
6.092475843722e-05
1.222101652995e-04
2.299864120181e-04
4.148086011954e-04
7.261227703000e-04
1.243678782572e-03
2.095600372711e-03
3.486328841456e-03
5.739653436511e-03
9.372346325452e-03
1.525133053847e-02
2.491013766380e-02
4.069827856600e-02
6.447688101538e-02
9.623928559150e-02
1.432156554827e-01
1.426658763484e-01
1.419731775762e-01
1.410973605484e-01
1.400195115648e-01
1.386980856809e-01
1.371031528662e-01
1.352226914380e-01
1.330283403213e-01
1.305190477854e-01
1.277036326949e-01
1.246026738241e-01
1.212518218864e-01
1.177080040163e-01
1.140369171741e-01
1.103190567764e-01
1.066317739601e-01
1.030636386291e-01
9.967101747249e-02
9.663697906702e-02
9.427286339547e-02
9.200638078596e-02
9.392889540042e-02
9.569975328101e-02
9.722446807986e-02
9.880320200750e-02
1.004523420990e-01
1.021260616190e-01
1.038228314867e-01
1.055186054290e-01
1.071932220886e-01
1.088263529372e-01
1.104145563891e-01
1.119173621343e-01
1.133263516409e-01
1.146284779455e-01
1.158142025329e-01
1.168753387571e-01
1.178153376815e-01
1.186312060551e-01
1.193347430889e-01
1.199363930436e-01
1.204392936847e-01
1.208418739697e-01
1.211981243044e-01
1.214592210187e-01
1.216751797076e-01
1.218439148446e-01
1.219713068416e-01
1.220771168025e-01
1.221704817885e-01
1.222153433603e-01
1.222670552458e-01
1.223016537904e-01
1.223159858287e-01
1.222780672762e-01
1.223485544181e-01
1.223700426303e-01
1.223762911509e-01
1.223927965928e-01
1.223739657352e-01
1.223884716695e-01
1.223865002253e-01
1.223831355106e-01
1.223919608521e-01
1.223980656420e-01
1.223987352436e-01
1.224036726560e-01
1.223962215760e-01
1.223877314573e-01
1.223939384134e-01
1.223940181451e-01
1.223957951337e-01
1.223990816831e-01
1.224000230208e-01
1.223938522024e-01
1.224038540554e-01
1.223984145685e-01
1.223893597831e-01
1.224027327959e-01
1.223914135262e-01
1.223991477764e-01
1.223944042577e-01
1.223811166483e-01
SCALARS 2-Ca double 1
LOOKUP_TABLE default
9.970358361137e-06
2.006496845614e-05
3.952045477212e-05
7.483332379279e-05
1.365200640777e-04
2.414830755389e-04
4.167592051710e-04
7.054628512751e-04
1.176119674760e-03
1.937009296059e-03
3.158133519401e-03
5.108578406942e-03
8.235742491392e-03
1.332431570092e-02
2.157182427759e-02
3.393741928203e-02
5.045325171728e-02
7.477795625278e-02
7.559437216452e-02
7.665770334275e-02
7.802355165392e-02
7.977174747946e-02
8.198591095936e-02
8.477213459176e-02
8.826373106933e-02
9.260576254345e-02
9.797859191355e-02
1.045909994632e-01
1.126831121663e-01
1.225302526944e-01
1.344487540816e-01
1.487932014858e-01
1.659594715577e-01
1.863713993733e-01
2.105645236204e-01
2.392840367721e-01
2.723569537221e-01
3.072159665677e-01
3.536965020697e-01
3.335500122579e-01
3.151641675624e-01
2.986525179601e-01
2.825901908381e-01
2.671132094136e-01
2.523294131534e-01
2.383510628259e-01
2.252456353229e-01
2.130651208452e-01
2.018405590847e-01
1.915987484482e-01
1.823093001454e-01
1.739554670908e-01
1.664996446731e-01
1.598939379962e-01
1.540805633944e-01
1.490047179101e-01
1.445990130162e-01
1.408070767259e-01
1.375695531970e-01
1.348200300778e-01
1.324892161916e-01
1.305664801748e-01
1.289424352040e-01
1.276112614651e-01
1.265201706688e-01
1.256296478483e-01
1.249193484180e-01
1.243634222269e-01
1.238956551250e-01
1.235457088756e-01
1.232679739881e-01
1.230412563782e-01
1.228186924277e-01
1.227487908549e-01
1.226643279944e-01
1.225912029980e-01
1.225486800960e-01
1.224862701807e-01
1.224688353857e-01
1.224436216459e-01
1.224234651101e-01
1.224202451273e-01
1.224177704880e-01
1.224123722412e-01
1.224130481324e-01
1.224026249395e-01
1.223920763074e-01
1.223968673168e-01
1.223959797470e-01
1.223971004160e-01
1.223999446578e-01
1.224005899178e-01
1.223942222310e-01
1.224040940517e-01
1.223985692457e-01
1.223894588490e-01
1.224027958596e-01
1.223914534681e-01
1.223991731001e-01
1.223944209252e-01
1.223811302677e-01
SCALARS 3-Cl double 1
LOOKUP_TABLE default
3.988143344455e+00
3.988124564207e+00
3.988089213258e+00
3.988027427393e+00
3.987924766700e+00
3.987760549001e+00
3.987505742091e+00
3.987120356494e+00
3.986550293533e+00
3.985723624446e+00
3.984546309318e+00
3.982897408234e+00
3.980623895900e+00
3.977535252849e+00
3.973398033655e+00
3.967930703577e+00
3.960799523854e+00
3.951615811739e+00
3.939930667768e+00
3.925242745941e+00
3.906995921160e+00
3.884587182445e+00
3.857376294440e+00
3.824699031646e+00
3.785883917236e+00
3.740272210884e+00
3.687240647120e+00
3.626226175389e+00
3.556751726567e+00
3.478451838445e+00
3.391096835720e+00
3.294614201777e+00
3.189105819353e+00
3.074859859305e+00
2.952356338905e+00
2.822265653420e+00
2.685439766543e+00
2.542895974407e+00
2.395793945459e+00
2.245407579062e+00
2.093090190663e+00
1.940238281721e+00
1.788253214443e+00
1.638503034531e+00
1.492286256292e+00
1.350799132997e+00
1.215107722282e+00
1.086125780797e+00
9.645991425534e-01
8.510968696267e-01
7.460090890093e-01
6.495511049324e-01
5.617730773445e-01
4.825743530281e-01
4.117213849834e-01
3.488681136457e-01
2.935776880927e-01
2.453444775343e-01
2.036154409183e-01
1.678100811007e-01
1.373383893939e-01
1.116163689580e-01
9.007890533526e-02
7.218991645864e-02
5.744985051011e-02
4.540071376774e-02
3.562888962892e-02
2.776606234597e-02
2.148858347038e-02
1.651562166952e-02
1.260641969900e-02
9.556953170536e-03
7.196246942722e-03
5.382562432902e-03
3.999624860461e-03
2.953017882118e-03
2.166834296391e-03
1.580638649579e-03
1.146769928762e-03
8.279907131782e-04
5.954729067540e-04
4.270986983166e-04
3.060482185098e-04
2.196415164513e-04
1.584013186486e-04
1.153038100665e-04
8.518677206794e-05
6.428732208635e-05
4.988482238085e-05
4.002795018324e-05
3.332823511694e-05
2.880543780161e-05
2.577288068205e-05
2.375321739846e-05
2.241713907853e-05
2.153918939540e-05
2.096624141126e-05
2.059537675261e-05
2.035915486408e-05
2.021840414627e-05
2.016867161872e-05
SCALARS 4-H double 1
LOOKUP_TABLE default
2.701109245634e-04
2.915479959969e-04
3.274443066608e-04
4.067214376255e-04
5.743879912442e-04
9.016845512919e-04
1.490657097747e-03
2.493432028116e-03
4.147204297089e-03
6.817651524167e-03
1.105098100092e-02
1.763974766937e-02
2.775575315546e-02
4.316479717647e-02
6.583943128067e-02
9.583301534655e-02
1.305891514365e-01
1.746941957171e-01
1.742122228861e-01
1.736035888986e-01
1.728314720589e-01
1.718778001497e-01
1.707030260022e-01
1.692771978550e-01
1.675850258897e-01
1.655950450328e-01
1.632989100623e-01
1.606956229996e-01
1.577952528244e-01
1.546144083077e-01
1.512097834805e-01
1.476164715459e-01
1.439128667348e-01
1.401606615832e-01
1.364414139960e-01
1.327909323842e-01
1.294359885275e-01
1.267299089823e-01
1.239398552244e-01
1.262958268734e-01
1.284813190126e-01
1.304462185713e-01
1.325044394253e-01
1.346186633475e-01
1.368173442151e-01
1.390431925744e-01
1.412899517833e-01
1.435043069173e-01
1.457107668652e-01
1.478660854286e-01
1.499401452357e-01
1.518968657304e-01
1.537550730750e-01
1.554615201054e-01
1.570083327406e-01
1.584102779048e-01
1.596540072773e-01
1.607482704315e-01
1.617005024678e-01
1.625108165442e-01
1.631987112193e-01
1.637852721280e-01
1.642511184395e-01
1.646361599936e-01
1.649774602311e-01
1.652082085697e-01
1.654265686675e-01
1.655878436314e-01
1.657144405504e-01
1.658077561187e-01
1.658861700623e-01
1.659363258201e-01
1.659467751587e-01
1.660113518198e-01
1.660336565501e-01
1.660426163192e-01
1.660761384015e-01
1.660744283669e-01
1.660721106095e-01
1.660796204859e-01
1.660968605587e-01
1.660843862026e-01
1.661016071507e-01
1.661002216646e-01
1.661077529951e-01
1.661053052274e-01
1.661085152850e-01
1.660893265133e-01
1.660895243073e-01
1.660976211691e-01
1.660971874506e-01
1.661003633871e-01
1.661016139357e-01
1.661048942728e-01
1.661138236214e-01
1.660963773176e-01
1.661100297428e-01
1.661127173617e-01
1.661077448660e-01
1.661057322566e-01
1.660991736886e-01
SCALARS 5-Mg double 1
LOOKUP_TABLE default
1.994071672227e+00
1.994069554933e+00
1.994066010933e+00
1.994061090538e+00
1.994055849698e+00
1.994053600026e+00
1.994062234610e+00
1.994098394178e+00
1.994194627464e+00
1.994411131769e+00
1.994854674576e+00
1.995712472036e+00
1.997327535997e+00
2.000353448387e+00
2.005825471116e+00
2.014504813522e+00
2.026185795801e+00
2.044245605100e+00
2.037036838068e+00
2.027936847204e+00
2.016571769474e+00
2.002541355308e+00
1.985400321941e+00
1.964680534098e+00
1.939900918987e+00
1.910558683220e+00
1.876160779432e+00
1.836225720926e+00
1.790295424941e+00
1.737947488414e+00
1.678807667795e+00
1.612550816577e+00
1.538912494895e+00
1.457690304239e+00
1.368677284461e+00
1.271519807410e+00
1.166999908616e+00
1.058504884031e+00
9.362068514458e-01
8.830826726736e-01
8.270806810502e-01
7.686910909802e-01
7.103396183911e-01
6.525906499509e-01
5.959397766117e-01
5.408713351592e-01
4.878268312471e-01
4.371909916420e-01
3.892853651292e-01
3.443642427542e-01
3.026126064935e-01
2.641464370163e-01
2.290153719446e-01
1.972074410507e-01
1.686554678543e-01
1.432446765942e-01
1.208210370852e-01
1.011999051301e-01
8.417456030567e-02
6.952430415714e-02
5.702185247498e-02
4.643982860845e-02
3.755623848218e-02
3.015887647179e-02
2.404866943076e-02
1.904201587713e-02
1.497221319884e-02
1.169009073454e-02
9.063979970387e-03
6.979157204831e-03
5.336889651659e-03
4.053206035765e-03
3.057498319806e-03
2.291044779586e-03
1.705527066076e-03
1.261597093894e-03
9.275336449620e-04
6.780148792985e-04
4.930212481691e-04
3.568739359914e-04
2.574068538502e-04
1.852650739138e-04
1.333192632718e-04
9.618376068851e-05
6.982518295135e-05
5.124854147581e-05
3.824853592061e-05
2.921475763532e-05
2.298080924402e-05
1.870869279954e-05
1.580114290740e-05
1.383582195894e-05
1.251641174236e-05
1.163661240599e-05
1.105389232530e-05
1.067052876466e-05
1.042005704851e-05
1.025774648212e-05
1.015425375982e-05
1.009253449032e-05
1.007071633916e-05
SCALARS 6-O double 1
LOOKUP_TABLE default
2.010568337471e-02
2.016934925298e-02
2.028964899959e-02
2.051592391525e-02
2.092770542426e-02
2.165320976778e-02
2.289310447214e-02
2.496450189243e-02
2.837280508443e-02
3.391741362828e-02
4.284703080729e-02
5.711369270669e-02
7.991095570396e-02
1.167308884946e-01
1.756188045218e-01
2.621974310434e-01
3.751836110867e-01
5.385785351415e-01
5.372139738786e-01
5.354924307001e-01
5.332999231019e-01
5.305978088382e-01
5.272704891969e-01
5.232430874078e-01
5.185021096024e-01
5.129763835831e-01
5.066866296505e-01
4.996841446622e-01
4.920571705198e-01
4.839374134694e-01
4.755343421505e-01
4.670658627001e-01
4.588080799215e-01
4.510109321552e-01
4.439593134036e-01
4.378100662606e-01
4.331874515328e-01
4.311563757435e-01
4.295813593470e-01
4.432942187993e-01
4.565538359612e-01
4.689888520379e-01
4.815936500581e-01
4.943371683237e-01
5.070377164355e-01
5.196082257396e-01
5.319254495032e-01
5.438611190899e-01
5.553329317210e-01
5.662833224343e-01
5.765582560400e-01
5.861047385443e-01
5.948907757691e-01
6.028656498395e-01
6.100113659321e-01
6.163612272047e-01
6.219192328987e-01
6.267479050147e-01
6.309071783517e-01
6.344326430849e-01
6.373558858570e-01
6.398757008020e-01
6.418613577595e-01
6.435069840144e-01
6.448473367093e-01
6.458872642184e-01
6.467537468843e-01
6.474684247483e-01
6.479488925812e-01
6.483745501494e-01
6.486935328274e-01
6.488988861734e-01
6.488966294803e-01
6.492220293661e-01
6.493599054292e-01
6.494302491486e-01
6.495319210611e-01
6.495009646402e-01
6.495628572474e-01
6.495750501345e-01
6.495840446814e-01
6.496118644475e-01
6.496442395817e-01
6.496494460843e-01
6.496707813670e-01
6.496491448030e-01
6.496266354679e-01
6.496366030942e-01
6.496375897647e-01
6.496474129736e-01
6.496573574295e-01
6.496619731441e-01
6.496442224922e-01
6.496759592047e-01
6.496641655212e-01
6.496283175572e-01
6.496752886404e-01
6.496426912763e-01
6.496634184844e-01
6.496481878983e-01
6.496050480003e-01
SCALARS 7-Sn double 1
LOOKUP_TABLE default
0.000000000000e+00
0.000000000000e+00
0.000000000000e+00
0.000000000000e+00
0.000000000000e+00
0.000000000000e+00
0.000000000000e+00
0.000000000000e+00
0.000000000000e+00
0.000000000000e+00
0.000000000000e+00
0.000000000000e+00
0.000000000000e+00
0.000000000000e+00
0.000000000000e+00
0.000000000000e+00
0.000000000000e+00
0.000000000000e+00
0.000000000000e+00
0.000000000000e+00
0.000000000000e+00
0.000000000000e+00
0.000000000000e+00
0.000000000000e+00
0.000000000000e+00
0.000000000000e+00
0.000000000000e+00
0.000000000000e+00
0.000000000000e+00
0.000000000000e+00
0.000000000000e+00
0.000000000000e+00
0.000000000000e+00
0.000000000000e+00
0.000000000000e+00
0.000000000000e+00
0.000000000000e+00
0.000000000000e+00
0.000000000000e+00
0.000000000000e+00
0.000000000000e+00
0.000000000000e+00
0.000000000000e+00
0.000000000000e+00
0.000000000000e+00
0.000000000000e+00
0.000000000000e+00
0.000000000000e+00
0.000000000000e+00
0.000000000000e+00
0.000000000000e+00
0.000000000000e+00
0.000000000000e+00
0.000000000000e+00
0.000000000000e+00
0.000000000000e+00
0.000000000000e+00
0.000000000000e+00
0.000000000000e+00
0.000000000000e+00
0.000000000000e+00
0.000000000000e+00
0.000000000000e+00
0.000000000000e+00
0.000000000000e+00
0.000000000000e+00
0.000000000000e+00
0.000000000000e+00
0.000000000000e+00
0.000000000000e+00
0.000000000000e+00
0.000000000000e+00
0.000000000000e+00
0.000000000000e+00
0.000000000000e+00
0.000000000000e+00
0.000000000000e+00
0.000000000000e+00
0.000000000000e+00
0.000000000000e+00
0.000000000000e+00
0.000000000000e+00
0.000000000000e+00
0.000000000000e+00
0.000000000000e+00
0.000000000000e+00
0.000000000000e+00
0.000000000000e+00
0.000000000000e+00
0.000000000000e+00
0.000000000000e+00
0.000000000000e+00
0.000000000000e+00
0.000000000000e+00
0.000000000000e+00
0.000000000000e+00
0.000000000000e+00
0.000000000000e+00
0.000000000000e+00
0.000000000000e+00
0.000000000000e+00
SCALARS 8-Zz double 1
LOOKUP_TABLE default
1.035722930241e-15
-2.169260253308e-15
3.893486493685e-15
3.728472474203e-16
2.891787183709e-15
3.146143920348e-15
-1.186384604350e-15
1.384266462226e-16
-5.908810552028e-16
-3.407044212484e-16
-9.027315272470e-16
-9.053268654520e-18
6.066362780289e-16
2.310498512197e-16
-5.501921704117e-16
-5.492066850390e-16
1.666107795940e-16
-1.457573143110e-16
8.732034284701e-17
8.559088588585e-16
1.934500780172e-16
-9.649374107027e-17
3.091998626834e-16
-4.689747110000e-16
-6.472631990738e-16
3.328753793623e-17
4.167450877647e-16
-1.459295273321e-16
1.220686383037e-16
-2.281100916614e-16
-5.609344880703e-16
6.433781450412e-16
-4.408218425298e-16
-9.346507276990e-17
2.736706830696e-16
2.595489608983e-16
-6.357091525958e-16
-3.785963137628e-16
-7.947837354949e-16
8.051937988433e-17
4.249030550357e-16
4.137032568613e-16
-2.403430534366e-18
1.697919546916e-16
2.329856509749e-17
-1.200239756642e-16
9.378704154461e-17
8.345413685297e-18
-6.704019225450e-17
-2.351798986941e-16
-7.279208835580e-17
3.603531827128e-17
1.542383350458e-16
1.103375943517e-16
1.133601270655e-16
-1.680277354384e-17
1.086955397836e-16
3.099890900389e-17
-1.726844710916e-17
-5.616420579192e-17
-1.153712265085e-16
5.008426818321e-17
-3.004687542412e-17
2.879791965478e-17
-2.429881441619e-17
2.036538748480e-17
1.361529672661e-17
1.007472048886e-18
1.031290789227e-17
-3.795226257724e-18
-2.069007199345e-18
1.588740444745e-17
-2.737834292785e-17
-2.433167729351e-17
3.924674243408e-17
-1.437944586251e-17
2.049081860077e-17
2.644171836322e-17
3.433553449181e-19
5.328614325014e-18
-2.587719017743e-18
-1.055998559132e-17
5.449892375611e-17
2.723422540480e-17
-2.864095545614e-17
3.663221374741e-17
3.577201656189e-17
4.943467774933e-17
-1.605854550859e-17
3.532614514836e-17
-3.426249473158e-17
-2.820619701621e-17
4.451755316769e-18
4.084596571915e-17
-1.005933054829e-17
-2.498863551179e-17
-4.237618061434e-18
2.239473927942e-17
-2.637599033014e-17
-1.527991068399e-17
-1.012271323071e-17
SCALARS C double 1
LOOKUP_TABLE default
 3.190559220786e-06
 8.748142842371e-06
 1.949602842311e-05
 3.910746496806e-05
 7.359605094295e-05
 1.327394722031e-04
 2.323605465424e-04
 3.979793685884e-04
 6.705957557788e-04
 1.115631279119e-03
 1.836699059748e-03
 2.999167088049e-03
 4.880452238062e-03
 7.971287279167e-03
 1.302351976515e-02
 2.063271381215e-02
 3.079673839405e-02
 9.695121494076e-02
 1.186089075175e-01
 1.216514408872e-01
 1.217837656219e-01
 1.214661999713e-01
 1.209611360219e-01
 1.203960185405e-01
 1.196679291441e-01
 1.188517018999e-01
 1.179234189585e-01
 1.168334042587e-01
 1.156576591844e-01
 1.143876797262e-01
 1.129447096107e-01
 1.114465376798e-01
 1.099425373356e-01
 1.083701451479e-01
 1.068111435879e-01
 1.053132628628e-01
 1.039190009456e-01
 1.025965061382e-01
 1.006779665889e-01
 1.001576765351e-01
 1.006627725076e-01
 1.011756458939e-01
 1.016054981221e-01
 1.021237953361e-01
 1.025420967029e-01
 1.030065977878e-01
 1.035575714350e-01
 1.040307733326e-01
 1.044519818643e-01
 1.049643969888e-01
 1.053684883755e-01
 1.058339624601e-01
 1.062278994161e-01
 1.065359101750e-01
 1.068774013616e-01
 1.072134006743e-01
 1.074658942679e-01
 1.076424758088e-01
 1.078596525711e-01
 1.080283782196e-01
 1.081175839464e-01
 1.082552697805e-01
 1.083547411461e-01
 1.083779592675e-01
 1.084382584014e-01
 1.085755404638e-01
 1.085065759602e-01
 1.085466117706e-01
 1.085846711465e-01
 1.086480787895e-01
 1.085519635442e-01
 1.086109790853e-01
 1.086446403007e-01
 1.086235343244e-01
 1.086812690224e-01
 1.085857295119e-01
 1.086763630813e-01
 1.086111163087e-01
 1.086527863383e-01
 1.085726835579e-01
 1.086646590425e-01
 1.086502202518e-01
 1.086466434012e-01
 1.086205704981e-01
 1.086690666347e-01
 1.086326657680e-01
 1.086138893547e-01
 1.086646084061e-01
 1.086457166441e-01
 1.086211691483e-01
 1.086351570576e-01
 1.086482697986e-01
 1.086351047627e-01
 1.086684022104e-01
 1.086250159761e-01
 1.086392404471e-01
 1.085978004909e-01
 1.086836285331e-01
 1.086219334534e-01
 1.086865147097e-01
 1.085338656081e-01
SCALARS Ca double 1
LOOKUP_TABLE default
 3.190559220786e-06
 6.420824724856e-06
 1.264661410723e-05
 2.394679347253e-05
 4.368665740919e-05
 7.727500321986e-05
 1.333636688601e-04
 2.257493366031e-04
 3.763603368526e-04
 6.198463360458e-04
 1.010608206542e-03
 1.634753955177e-03
 2.635451888792e-03
 4.263804146081e-03
 6.903021202580e-03
 1.086003306211e-02
 1.614512810144e-02
 4.949004887754e-02
 6.066811002123e-02
 6.264047302581e-02
 6.328383618173e-02
 6.385693017549e-02
 6.452435658264e-02
 6.538857606673e-02
 6.644271292591e-02
 6.777514171046e-02
 6.943178780008e-02
 7.145321178150e-02
 7.395096217524e-02
 7.700318600053e-02
 8.066262343890e-02
 8.509112435688e-02
 9.042717649607e-02
 9.676274937403e-02
 1.042959351243e-01
 1.132800413526e-01
 1.236516712802e-01
 1.345235490765e-01
 1.640450068754e-01
 1.752772331757e-01
 1.708911982014e-01
 1.656324501518e-01
 1.604171783933e-01
 1.554551313314e-01
 1.506070422767e-01
 1.460555185340e-01
 1.418701201455e-01
 1.379096919955e-01
 1.342164500419e-01
 1.309432705393e-01
 1.278938498577e-01
 1.252352288287e-01
 1.228266295428e-01
 1.206413889063e-01
 1.187830423366e-01
 1.171939763957e-01
 1.157755708967e-01
 1.145136047515e-01
 1.135022491693e-01
 1.126302019127e-01
 1.118447237937e-01
 1.112531358780e-01
 1.107493634657e-01
 1.102775005061e-01
 1.099346563852e-01
 1.097462065375e-01
 1.094160877197e-01
 1.092483508911e-01
 1.091223695153e-01
 1.090572468867e-01
 1.088611852069e-01
 1.088430650588e-01
 1.088176398993e-01
 1.087516096517e-01
 1.087754400939e-01
 1.086545011248e-01
 1.087262456726e-01
 1.086470536380e-01
 1.086785026607e-01
 1.085909623651e-01
 1.086775644808e-01
 1.086592711964e-01
 1.086529489355e-01
 1.086249343260e-01
 1.086720667793e-01
 1.086347148391e-01
 1.086152797031e-01
 1.086655456528e-01
 1.086463443550e-01
 1.086215868375e-01
 1.086354332088e-01
 1.086484512051e-01
 1.086352231715e-01
 1.086684790090e-01
 1.086250654727e-01
 1.086392721481e-01
 1.085978206712e-01
 1.086836413145e-01
 1.086219415569e-01
 1.086865200433e-01
 1.085338699664e-01
SCALARS Cl double 1
LOOKUP_TABLE default
 1.276223688314e+00
 1.276206781169e+00
 1.276195468804e+00
 1.276175697220e+00
 1.276142845620e+00
 1.276090295672e+00
 1.276008757018e+00
 1.275885432958e+00
 1.275703011822e+00
 1.275438476279e+00
 1.275061733395e+00
 1.274534082187e+00
 1.273806554295e+00
 1.272818183159e+00
 1.271494265837e+00
 1.269744710725e+00
 1.267462720839e+00
 1.264517413144e+00
 1.260775396507e+00
 1.256074858024e+00
 1.250235835309e+00
 1.243065051901e+00
 1.234357597887e+00
 1.223900904392e+00
 1.211480111452e+00
 1.196884412187e+00
 1.179914364874e+00
 1.160389799717e+00
 1.138158046461e+00
 1.113102159572e+00
 1.085148653423e+00
 1.054274311274e+00
 1.020511732687e+00
 9.839531406114e-01
 9.447521339919e-01
 9.031232355706e-01
 8.593390743558e-01
 8.137251948405e-01
 7.666523792111e-01
 7.185285413843e-01
 6.697870787245e-01
 6.208745962288e-01
 5.722395092331e-01
 5.243195794668e-01
 4.775303410770e-01
 4.322545850894e-01
 3.888334475487e-01
 3.475593374396e-01
 3.086709189040e-01
 2.723502863598e-01
 2.387222865817e-01
 2.078558117379e-01
 1.797669166040e-01
 1.544233920950e-01
 1.317505011488e-01
 1.116375060838e-01
 9.394461600546e-02
 7.851002918483e-02
 6.515677191578e-02
 5.369908647544e-02
 4.394817065705e-02
 3.571714536134e-02
 2.882517483747e-02
 2.310071338788e-02
 1.838390449732e-02
 1.452819057504e-02
 1.140121512840e-02
 8.885116909369e-03
 6.876328859657e-03
 5.284985185908e-03
 4.034043859442e-03
 3.058217077560e-03
 2.302793033045e-03
 1.722415507908e-03
 1.279876625847e-03
 9.449632746670e-04
 6.933851720323e-04
 5.058030562265e-04
 3.669654240276e-04
 2.649563424352e-04
 1.905508349154e-04
 1.366712285221e-04
 9.793517564509e-05
 7.028510299003e-05
 5.068829024022e-05
 3.689712347891e-05
 2.725969637754e-05
 2.057188960916e-05
 1.596310171473e-05
 1.280891083828e-05
 1.066500756143e-05
 9.217716162650e-06
 8.247300414736e-06
 7.601009814845e-06
 7.173465898004e-06
 6.892522714514e-06
 6.709179870924e-06
 6.590503419555e-06
 6.514912660083e-06
 6.469872497834e-06
 6.453958240959e-06
SCALARS H double 1
LOOKUP_TABLE default
 3.542055048139e+04
 3.542024803700e+04
 3.542024804490e+04
 3.542024806312e+04
 3.542024810305e+04
 3.542024818152e+04
 3.542024832176e+04
 3.542024855711e+04
 3.542024894063e+04
 3.542024955811e+04
 3.542025055054e+04
 3.542025215451e+04
 3.542025479046e+04
 3.542025925344e+04
 3.542026689608e+04
 3.542027912522e+04
 3.542029652545e+04
 3.542014132005e+04
 3.542006548150e+04
 3.542005631761e+04
 3.542005789920e+04
 3.542006153995e+04
 3.542006635352e+04
 3.542007195702e+04
 3.542007881815e+04
 3.542008673821e+04
 3.542009590675e+04
 3.542010660651e+04
 3.542011867110e+04
 3.542013223609e+04
 3.542014768821e+04
 3.542016469789e+04
 3.542018316127e+04
 3.542020332964e+04
 3.542022490807e+04
 3.542024760501e+04
 3.542027144485e+04
 3.542029719470e+04
 3.542030886689e+04
 3.542032830240e+04
 3.542036159479e+04
 3.542039595203e+04
 3.542043058110e+04
 3.542046451935e+04
 3.542049816816e+04
 3.542053066900e+04
 3.542056157817e+04
 3.542059132895e+04
 3.542061961028e+04
 3.542064570271e+04
 3.542067025273e+04
 3.542069249720e+04
 3.542071293510e+04