# vtk DataFile Version 3.0
Unstructured Grid from OpenGeoSys
ASCII
DATASET UNSTRUCTURED_GRID
FIELD TimesAndCycles 2
TIME 1 1 double
9.000000000000e+03
CYLCE 1 1 long
90
POINTS 101 double
0.000000000000e+00 0.000000000000e+00 0.000000000000e+00
5.000000000000e-03 0.000000000000e+00 0.000000000000e+00
1.000000000000e-02 0.000000000000e+00 0.000000000000e+00
1.500000000000e-02 0.000000000000e+00 0.000000000000e+00
2.000000000000e-02 0.000000000000e+00 0.000000000000e+00
2.500000000000e-02 0.000000000000e+00 0.000000000000e+00
3.000000000000e-02 0.000000000000e+00 0.000000000000e+00
3.500000000000e-02 0.000000000000e+00 0.000000000000e+00
4.000000000000e-02 0.000000000000e+00 0.000000000000e+00
4.500000000000e-02 0.000000000000e+00 0.000000000000e+00
5.000000000000e-02 0.000000000000e+00 0.000000000000e+00
5.500000000000e-02 0.000000000000e+00 0.000000000000e+00
6.000000000000e-02 0.000000000000e+00 0.000000000000e+00
6.500000000000e-02 0.000000000000e+00 0.000000000000e+00
7.000000000000e-02 0.000000000000e+00 0.000000000000e+00
7.500000000000e-02 0.000000000000e+00 0.000000000000e+00
8.000000000000e-02 0.000000000000e+00 0.000000000000e+00
8.500000000000e-02 0.000000000000e+00 0.000000000000e+00
9.000000000000e-02 0.000000000000e+00 0.000000000000e+00
9.500000000000e-02 0.000000000000e+00 0.000000000000e+00
1.000000000000e-01 0.000000000000e+00 0.000000000000e+00
1.050000000000e-01 0.000000000000e+00 0.000000000000e+00
1.100000000000e-01 0.000000000000e+00 0.000000000000e+00
1.150000000000e-01 0.000000000000e+00 0.000000000000e+00
1.200000000000e-01 0.000000000000e+00 0.000000000000e+00
1.250000000000e-01 0.000000000000e+00 0.000000000000e+00
1.300000000000e-01 0.000000000000e+00 0.000000000000e+00
1.350000000000e-01 0.000000000000e+00 0.000000000000e+00
1.400000000000e-01 0.000000000000e+00 0.000000000000e+00
1.450000000000e-01 0.000000000000e+00 0.000000000000e+00
1.500000000000e-01 0.000000000000e+00 0.000000000000e+00
1.550000000000e-01 0.000000000000e+00 0.000000000000e+00
1.600000000000e-01 0.000000000000e+00 0.000000000000e+00
1.650000000000e-01 0.000000000000e+00 0.000000000000e+00
1.700000000000e-01 0.000000000000e+00 0.000000000000e+00
1.750000000000e-01 0.000000000000e+00 0.000000000000e+00
1.800000000000e-01 0.000000000000e+00 0.000000000000e+00
1.850000000000e-01 0.000000000000e+00 0.000000000000e+00
1.900000000000e-01 0.000000000000e+00 0.000000000000e+00
1.950000000000e-01 0.000000000000e+00 0.000000000000e+00
2.000000000000e-01 0.000000000000e+00 0.000000000000e+00
2.050000000000e-01 0.000000000000e+00 0.000000000000e+00
2.100000000000e-01 0.000000000000e+00 0.000000000000e+00
2.150000000000e-01 0.000000000000e+00 0.000000000000e+00
2.200000000000e-01 0.000000000000e+00 0.000000000000e+00
2.250000000000e-01 0.000000000000e+00 0.000000000000e+00
2.300000000000e-01 0.000000000000e+00 0.000000000000e+00
2.350000000000e-01 0.000000000000e+00 0.000000000000e+00
2.400000000000e-01 0.000000000000e+00 0.000000000000e+00
2.450000000000e-01 0.000000000000e+00 0.000000000000e+00
2.500000000000e-01 0.000000000000e+00 0.000000000000e+00
2.550000000000e-01 0.000000000000e+00 0.000000000000e+00
2.600000000000e-01 0.000000000000e+00 0.000000000000e+00
2.650000000000e-01 0.000000000000e+00 0.000000000000e+00
2.700000000000e-01 0.000000000000e+00 0.000000000000e+00
2.750000000000e-01 0.000000000000e+00 0.000000000000e+00
2.800000000000e-01 0.000000000000e+00 0.000000000000e+00
2.850000000000e-01 0.000000000000e+00 0.000000000000e+00
2.900000000000e-01 0.000000000000e+00 0.000000000000e+00
2.950000000000e-01 0.000000000000e+00 0.000000000000e+00
3.000000000000e-01 0.000000000000e+00 0.000000000000e+00
3.050000000000e-01 0.000000000000e+00 0.000000000000e+00
3.100000000000e-01 0.000000000000e+00 0.000000000000e+00
3.150000000000e-01 0.000000000000e+00 0.000000000000e+00
3.200000000000e-01 0.000000000000e+00 0.000000000000e+00
3.250000000000e-01 0.000000000000e+00 0.000000000000e+00
3.300000000000e-01 0.000000000000e+00 0.000000000000e+00
3.350000000000e-01 0.000000000000e+00 0.000000000000e+00
3.400000000000e-01 0.000000000000e+00 0.000000000000e+00
3.450000000000e-01 0.000000000000e+00 0.000000000000e+00
3.500000000000e-01 0.000000000000e+00 0.000000000000e+00
3.550000000000e-01 0.000000000000e+00 0.000000000000e+00
3.600000000000e-01 0.000000000000e+00 0.000000000000e+00
3.650000000000e-01 0.000000000000e+00 0.000000000000e+00
3.700000000000e-01 0.000000000000e+00 0.000000000000e+00
3.750000000000e-01 0.000000000000e+00 0.000000000000e+00
3.800000000000e-01 0.000000000000e+00 0.000000000000e+00
3.850000000000e-01 0.000000000000e+00 0.000000000000e+00
3.900000000000e-01 0.000000000000e+00 0.000000000000e+00
3.950000000000e-01 0.000000000000e+00 0.000000000000e+00
4.000000000000e-01 0.000000000000e+00 0.000000000000e+00
4.050000000000e-01 0.000000000000e+00 0.000000000000e+00
4.100000000000e-01 0.000000000000e+00 0.000000000000e+00
4.150000000000e-01 0.000000000000e+00 0.000000000000e+00
4.200000000000e-01 0.000000000000e+00 0.000000000000e+00
4.250000000000e-01 0.000000000000e+00 0.000000000000e+00
4.300000000000e-01 0.000000000000e+00 0.000000000000e+00
4.350000000000e-01 0.000000000000e+00 0.000000000000e+00
4.400000000000e-01 0.000000000000e+00 0.000000000000e+00
4.450000000000e-01 0.000000000000e+00 0.000000000000e+00
4.500000000000e-01 0.000000000000e+00 0.000000000000e+00
4.550000000000e-01 0.000000000000e+00 0.000000000000e+00
4.600000000000e-01 0.000000000000e+00 0.000000000000e+00
4.650000000000e-01 0.000000000000e+00 0.000000000000e+00
4.700000000000e-01 0.000000000000e+00 0.000000000000e+00
4.750000000000e-01 0.000000000000e+00 0.000000000000e+00
4.800000000000e-01 0.000000000000e+00 0.000000000000e+00
4.850000000000e-01 0.000000000000e+00 0.000000000000e+00
4.900000000000e-01 0.000000000000e+00 0.000000000000e+00
4.950000000000e-01 0.000000000000e+00 0.000000000000e+00
5.000000000000e-01 0.000000000000e+00 0.000000000000e+00
CELLS 100 300
2 0 1
2 2 3
2 4 5
2 6 7
2 8 9
2 10 11
2 12 13
2 14 15
2 16 17
2 18 19
2 20 21
2 22 23
2 24 25
2 26 27
2 28 29
2 30 31
2 32 33
2 34 35
2 36 37
2 38 39
2 40 41
2 42 43
2 44 45
2 46 47
2 48 49
2 50 51
2 52 53
2 54 55
2 56 57
2 58 59
2 60 61
2 62 63
2 64 65
2 66 67
2 68 69
2 70 71
2 72 73
2 74 75
2 76 77
2 78 79
2 80 81
2 82 83
2 84 85
2 86 87
2 88 89
2 90 91
2 92 93
2 94 95
2 96 97
2 98 99
2 1 2
2 3 4
2 5 6
2 7 8
2 9 10
2 11 12
2 13 14
2 15 16
2 17 18
2 19 20
2 21 22
2 23 24
2 25 26
2 27 28
2 29 30
2 31 32
2 33 34
2 35 36
2 37 38
2 39 40
2 41 42
2 43 44
2 45 46
2 47 48
2 49 50
2 51 52
2 53 54
2 55 56
2 57 58
2 59 60
2 61 62
2 63 64
2 65 66
2 67 68
2 69 70
2 71 72
2 73 74
2 75 76
2 77 78
2 79 80
2 81 82
2 83 84
2 85 86
2 87 88
2 89 90
2 91 92
2 93 94
2 95 96
2 97 98
2 99 100

CELL_TYPES 100
3
3
3
3
3
3
3
3
3
3
3
3
3
3
3
3
3
3
3
3
3
3
3
3
3
3
3
3
3
3
3
3
3
3
3
3
3
3
3
3
3
3
3
3
3
3
3
3
3
3
3
3
3
3
3
3
3
3
3
3
3
3
3
3
3
3
3
3
3
3
3
3
3
3
3
3
3
3
3
3
3
3
3
3
3
3
3
3
3
3
3
3
3
3
3
3
3
3
3
3

POINT_DATA 101
SCALARS 1-C double 1
LOOKUP_TABLE default
9.970358361137e-06
1.190485836132e-03
3.453331286545e-03
7.509224298548e-03
1.440478778524e-02
2.563980524239e-02
4.381519988185e-02
7.535629226221e-02
1.372024437708e-01
1.343235472356e-01
1.308871721127e-01
1.269470341156e-01
1.226246192172e-01
1.180791222572e-01
1.135097892208e-01
1.091512806917e-01
1.052657047726e-01
1.016797938928e-01
9.875058209583e-02
1.013804893153e-01
1.047447980289e-01
1.073878507182e-01
1.098468954547e-01
1.121392997137e-01
1.142253372290e-01
1.160602478439e-01
1.176183252701e-01
1.188897604561e-01
1.198936161457e-01
1.206622822873e-01
1.212442396607e-01
1.216317668196e-01
1.219208567972e-01
1.221013794229e-01
1.222244685889e-01
1.222923535115e-01
1.223373195507e-01
1.223656154024e-01
1.223784654519e-01
1.223882360193e-01
1.223873637866e-01
1.224004890382e-01
1.223966037329e-01
1.223952929062e-01
1.223960155569e-01
1.224051225183e-01
1.223910240079e-01
1.223939199607e-01
1.223934831401e-01
1.223940869956e-01
1.223864521822e-01
1.224014636847e-01
1.223953263449e-01
1.224025001705e-01
1.223951445332e-01
1.223991755862e-01
1.223915174351e-01
1.223938174023e-01
1.224071469673e-01
1.223839077403e-01
1.223991276123e-01
1.223952718779e-01
1.223922253845e-01
1.223866592767e-01
1.223818697664e-01
1.223904523785e-01
1.223974221727e-01
1.223831942687e-01
1.223942181831e-01
1.223938263670e-01
1.223936393744e-01
1.224022320167e-01
1.223893995360e-01
1.223948285332e-01
1.223922927722e-01
1.223841956484e-01
1.222778894784e-01
1.223933451856e-01
1.224011619247e-01
1.223982181901e-01
1.223921922831e-01
1.223991571003e-01
1.223881805539e-01
1.223938951917e-01
1.223949635080e-01
1.223935356939e-01
1.223911879345e-01
1.223980351824e-01
1.223938418804e-01
1.223938774607e-01
1.223924283686e-01
1.223941182233e-01
1.223913213114e-01
1.223852431173e-01
1.224004536304e-01
1.224037435710e-01
1.223936084917e-01
1.223933542180e-01
1.223859497770e-01
1.223963755879e-01
1.224056745045e-01
SCALARS 2-Ca double 1
LOOKUP_TABLE default
9.970358361137e-06
8.410363114496e-04
2.416188402544e-03
5.193827015617e-03
9.833097021417e-03
1.725649082718e-02
2.897630879046e-02
4.845677286969e-02
8.445708854478e-02
8.978579166669e-02
9.687867410721e-02
1.061359894247e-01
1.180061854488e-01
1.329741031586e-01
1.515627207240e-01
1.741625538128e-01
2.009598438505e-01
2.357507140355e-01
2.817087107451e-01
2.719084942674e-01
2.465736239980e-01
2.259674371411e-01
2.078561554514e-01
1.920097430113e-01
1.783551406823e-01
1.667858070101e-01
1.571425348528e-01
1.492253117152e-01
1.428277475902e-01
1.377408392194e-01
1.337716964269e-01
1.306834534843e-01
1.283635915815e-01
1.266190145982e-01
1.253454003047e-01
1.244167076931e-01
1.237622086827e-01
1.233074890081e-01
1.229921015974e-01
1.227823195666e-01
1.226368689847e-01
1.225562439911e-01
1.224924850585e-01
1.224535054536e-01
1.224308774889e-01
1.224257194037e-01
1.224030309056e-01
1.224008271901e-01
1.223974049453e-01
1.223962850725e-01
1.223876684817e-01
1.224021282614e-01
1.223956849554e-01
1.224026913056e-01
1.223952451717e-01
1.223992279413e-01
1.223915443499e-01
1.223938310774e-01
1.224071538353e-01
1.223839111505e-01
1.223991292865e-01
1.223952726908e-01
1.223922257749e-01
1.223866594622e-01
1.223818698535e-01
1.223904524190e-01
1.223974221914e-01
1.223831942772e-01
1.223942181870e-01
1.223938263687e-01
1.223936393752e-01
1.224022320170e-01
1.223893995361e-01
1.223948285333e-01
1.223922927722e-01
1.223841956484e-01
1.222778894784e-01
1.223933451856e-01
1.224011619247e-01
1.223982181901e-01
1.223921922831e-01
1.223991571003e-01
1.223881805539e-01
1.223938951917e-01
1.223949635080e-01
1.223935356939e-01
1.223911879345e-01
1.223980351824e-01
1.223938418804e-01
1.223938774607e-01
1.223924283686e-01
1.223941182233e-01
1.223913213114e-01
1.223852431173e-01
1.224004536304e-01
1.224037435710e-01
1.223936084917e-01
1.223933542180e-01
1.223859497770e-01
1.223963755879e-01
1.224056745045e-01
SCALARS 3-Cl double 1
LOOKUP_TABLE default
3.988143344455e+00
3.984516042578e+00
3.977878184486e+00
3.966789049222e+00
3.949432428241e+00
3.923629660953e+00
3.886899082679e+00
3.836568884241e+00
3.769943675377e+00
3.684512800101e+00
3.578201560523e+00
3.449609545982e+00
3.298234231762e+00
3.124636558646e+00
2.930524390448e+00
2.718736167595e+00
2.493119392076e+00
2.258312440954e+00
2.019451644720e+00
1.781833669996e+00
1.550572723525e+00
1.330284183776e+00
1.124830690830e+00
9.371480563778e-01
7.691621076247e-01
6.217941493415e-01
4.950430170967e-01
3.881247390090e-01
2.996474356780e-01
2.277991462964e-01
1.705291468625e-01
1.257080216694e-01
9.125723397834e-02
6.524426148190e-02
4.594384774158e-02
3.186917145802e-02
2.177866860897e-02
1.466497004862e-02
9.732206202046e-03
6.367092331816e-03
4.108048797753e-03
2.615377519636e-03
1.644383811528e-03
1.022401750508e-03
6.299884609302e-04
3.860906791271e-04
2.367208438255e-04
1.465636850427e-04
9.292107274571e-05
6.145221956274e-05
4.324679037432e-05
3.285820377816e-05
2.700985977001e-05
2.376112344860e-05
2.198004030942e-05
2.101615797008e-05
2.050114902945e-05
2.022941995121e-05
2.008781884293e-05
2.001492615079e-05
1.997785259748e-05
1.995921958237e-05
1.994996376963e-05
1.994541878671e-05
1.994321226913e-05
1.994215298670e-05
1.994165005044e-05
1.994141384000e-05
1.994130409761e-05
1.994125364160e-05
1.994123068559e-05
1.994122035313e-05
1.994121573967e-05
1.994121370525e-05
1.994121281697e-05
1.994121242985e-05
1.994121221530e-05
1.994121219933e-05
1.994121217080e-05
1.994121215564e-05
1.994121215115e-05
1.994121215159e-05
1.994121214536e-05
1.994121214600e-05
1.994121214902e-05
1.994121214761e-05
1.994121214770e-05
1.994121214989e-05
1.994121214823e-05
1.994121214694e-05
1.994121214832e-05
1.994121214735e-05
1.994121214616e-05
1.994121214468e-05
1.994121215071e-05
1.994121215077e-05
1.994121215121e-05
1.994121214881e-05
1.994121214325e-05
1.994121215014e-05
1.994121215050e-05
SCALARS 4-H double 1
LOOKUP_TABLE default
2.701109245634e-04
2.390015674427e-03
6.754943636988e-03
1.429552927522e-02
2.633764059971e-02
4.427430066311e-02
7.002801845367e-02
1.083151155391e-01
1.694432772595e-01
1.668734548150e-01
1.637799202777e-01
1.601847943513e-01
1.561754744857e-01
1.518849427014e-01
1.474870577033e-01
1.432006825910e-01
1.392509853511e-01
1.354646365131e-01
1.321610040164e-01
1.352599028815e-01
1.394357133462e-01
1.428668997298e-01
1.461789595013e-01
1.493145765110e-01
1.522507461550e-01
1.549333978309e-01
1.572658408174e-01
1.592762235471e-01
1.609367870205e-01
1.622773279756e-01
1.633435038379e-01
1.641382456152e-01
1.647364867421e-01
1.651491225100e-01
1.654631152688e-01
1.656919085997e-01
1.658149953481e-01
1.659316261812e-01
1.659773259091e-01
1.660265843076e-01
1.660637535660e-01
1.660881859461e-01
1.660780559736e-01
1.660990520606e-01
1.660854033775e-01
1.661071912711e-01
1.661125961216e-01
1.661150461928e-01
1.660997079829e-01
1.661034293066e-01
1.661043998566e-01
1.661053483407e-01
1.661158836631e-01
1.661133139405e-01
1.661019170636e-01
1.661027200032e-01
1.660946786261e-01
1.661076760807e-01
1.661057992941e-01
1.660957954095e-01
1.661128661507e-01
1.660967543336e-01
1.661096564452e-01
1.660919024803e-01
1.660996395336e-01
1.661071374057e-01
1.661155571707e-01
1.660960991025e-01
1.660926836906e-01
1.660987650841e-01
1.660899273208e-01
1.661098902568e-01
1.661029665239e-01
1.660910107801e-01
1.660946672744e-01
1.661012095778e-01
1.660445863856e-01
1.660979340474e-01
1.661065616340e-01
1.661147764940e-01
1.661156169844e-01
1.661068487801e-01
1.660901154608e-01
1.661119608776e-01
1.661090511672e-01
1.660932390974e-01
1.660956641276e-01
1.660957764619e-01
1.661158184634e-01
1.660916730888e-01
1.660989053011e-01
1.661023987387e-01
1.660987404827e-01
1.660992029737e-01
1.661157681000e-01
1.661009537960e-01
1.660940898910e-01
1.661161124733e-01
1.661025433142e-01
1.661140973043e-01
1.661071888189e-01
SCALARS 5-Mg double 1
LOOKUP_TABLE default
1.994071672227e+00
1.992607470814e+00
1.989976235127e+00
1.985709921894e+00
1.979287904884e+00
1.970198144892e+00
1.958288432431e+00
1.945183961513e+00
1.937717192915e+00
1.886794155620e+00
1.823109278267e+00
1.745615817682e+00
1.653735549649e+00
1.547423298422e+00
1.427209263721e+00
1.294356810676e+00
1.150865556960e+00
9.950853003344e-01
8.267676937106e-01
7.203888300458e-01
6.334575357932e-01
5.465625054653e-01
4.644060854185e-01
3.887035848914e-01
3.204512503590e-01
2.601715155046e-01
2.079972989657e-01
1.637268182454e-01
1.268895863946e-01
9.682101621605e-02
7.273711666507e-02
5.380232416998e-02
3.918588220483e-02
2.810449556545e-02
1.985099215490e-02
1.381023154726e-02
9.464445172339e-03
6.390611418513e-03
4.252466955405e-03
2.789462618505e-03
1.804519200704e-03
1.151933806831e-03
7.263105801111e-04
4.529883277264e-04
2.801322983896e-04
1.724484541655e-04
1.063535241636e-04
6.637461303389e-05
4.253873120589e-05
2.852803284672e-05
2.040709571610e-05
1.576452518282e-05
1.314631939043e-05
1.168942660912e-05
1.088938173023e-05
1.045572386759e-05
1.022365964401e-05
1.010103492573e-05
1.003704135827e-05
1.000405292688e-05
9.987252086818e-06
9.978796942494e-06
9.974591552365e-06
9.972523976907e-06
9.971518995489e-06
9.971035971377e-06
9.970806376785e-06
9.970698425671e-06
9.970648218701e-06
9.970625110996e-06
9.970614587017e-06
9.970609845729e-06
9.970607726397e-06
9.970606791026e-06
9.970606382276e-06
9.970606203875e-06
9.970606103034e-06
9.970606097753e-06
9.970606084615e-06
9.970606077499e-06
9.970606075445e-06
9.970606075742e-06
9.970606072661e-06
9.970606072991e-06
9.970606074506e-06
9.970606073802e-06
9.970606073851e-06
9.970606074946e-06
9.970606074114e-06
9.970606073468e-06
9.970606074161e-06
9.970606073676e-06
9.970606073079e-06
9.970606072342e-06
9.970606075353e-06
9.970606075383e-06
9.970606075604e-06
9.970606074404e-06
9.970606071625e-06
9.970606075072e-06
9.970606075248e-06
SCALARS 6-O double 1
LOOKUP_TABLE default
2.010568337471e-02
2.487040201089e-02
3.414009070473e-02
5.057704863546e-02
7.806580408429e-02
1.219002543832e-01
1.909560973601e-01
3.069876968034e-01
5.260882974842e-01
5.200108755820e-01
5.129387566257e-01
5.051071757165e-01
4.969469163883e-01
4.889768285261e-01
4.818047443885e-01
4.761163664962e-01
4.726374813045e-01
4.705529006336e-01
4.708622988697e-01
4.909944880322e-01
5.135824039137e-01
5.331405805972e-01
5.514196751621e-01
5.683109983873e-01
5.835971823333e-01
5.970754278472e-01
6.086203002449e-01
6.182517060529e-01
6.260755737148e-01
6.322854995443e-01
6.371420319064e-01
6.407192942145e-01
6.434362688787e-01
6.453549808867e-01
6.467499561612e-01
6.477015178523e-01
6.483521461781e-01
6.488155508484e-01
6.490989877229e-01
6.493044036052e-01
6.494220601542e-01
6.495408442479e-01
6.495678330168e-01
6.496023977825e-01
6.496154065597e-01
6.496646010800e-01
6.496317322736e-01
6.496457039306e-01
6.496391393028e-01
6.496442282857e-01
6.496226286385e-01
6.496686052412e-01
6.496557241446e-01
6.496761070503e-01
6.496484218490e-01
6.496609598619e-01
6.496339878928e-01
6.496473988024e-01
6.496864555553e-01
6.496117390877e-01
6.496659358030e-01
6.496463134794e-01
6.496436254825e-01
6.496180503162e-01
6.496075504420e-01
6.496370473051e-01
6.496621666132e-01
6.496097537884e-01
6.496411179202e-01
6.496429831533e-01
6.496380033083e-01
6.496737627352e-01
6.496318034138e-01
6.496421125419e-01
6.496363334779e-01
6.496153132577e-01
6.492680826247e-01
6.496411241483e-01
6.496688881320e-01
6.496641643172e-01
6.496465068579e-01
6.496630172342e-01
6.496217208853e-01
6.496497875149e-01
6.496515376466e-01
6.496393481520e-01
6.496335173731e-01
6.496541153501e-01
6.496515563521e-01
6.496395904555e-01
6.496388592776e-01
6.496456755542e-01
6.496354556444e-01
6.496174523521e-01
6.496713664984e-01
6.496738291716e-01
6.496399919753e-01
6.496502404466e-01
6.496212424835e-01
6.496582969802e-01
6.496827394947e-01
SCALARS 7-Sn double 1
LOOKUP_TABLE default
0.000000000000e+00
0.000000000000e+00
0.000000000000e+00
0.000000000000e+00
0.000000000000e+00
0.000000000000e+00
0.000000000000e+00
0.000000000000e+00
0.000000000000e+00
0.000000000000e+00
0.000000000000e+00
0.000000000000e+00
0.000000000000e+00
0.000000000000e+00
0.000000000000e+00
0.000000000000e+00
0.000000000000e+00
0.000000000000e+00
0.000000000000e+00
0.000000000000e+00
0.000000000000e+00
0.000000000000e+00
0.000000000000e+00
0.000000000000e+00
0.000000000000e+00
0.000000000000e+00
0.000000000000e+00
0.000000000000e+00
0.000000000000e+00
0.000000000000e+00
0.000000000000e+00
0.000000000000e+00
0.000000000000e+00
0.000000000000e+00
0.000000000000e+00
0.000000000000e+00
0.000000000000e+00
0.000000000000e+00
0.000000000000e+00
0.000000000000e+00
0.000000000000e+00
0.000000000000e+00
0.000000000000e+00
0.000000000000e+00
0.000000000000e+00
0.000000000000e+00
0.000000000000e+00
0.000000000000e+00
0.000000000000e+00
0.000000000000e+00
0.000000000000e+00
0.000000000000e+00
0.000000000000e+00
0.000000000000e+00
0.000000000000e+00
0.000000000000e+00
0.000000000000e+00
0.000000000000e+00
0.000000000000e+00
0.000000000000e+00
0.000000000000e+00
0.000000000000e+00
0.000000000000e+00
0.000000000000e+00
0.000000000000e+00
0.000000000000e+00
0.000000000000e+00
0.000000000000e+00
0.000000000000e+00
0.000000000000e+00
0.000000000000e+00
0.000000000000e+00
0.000000000000e+00
0.000000000000e+00
0.000000000000e+00
0.000000000000e+00
0.000000000000e+00
0.000000000000e+00
0.000000000000e+00
0.000000000000e+00
0.000000000000e+00
0.000000000000e+00
0.000000000000e+00
0.000000000000e+00
0.000000000000e+00
0.000000000000e+00
0.000000000000e+00
0.000000000000e+00
0.000000000000e+00
0.000000000000e+00
0.000000000000e+00
0.000000000000e+00
0.000000000000e+00
0.000000000000e+00
0.000000000000e+00
0.000000000000e+00
0.000000000000e+00
0.000000000000e+00
0.000000000000e+00
0.000000000000e+00
0.000000000000e+00
SCALARS 8-Zz double 1
LOOKUP_TABLE default
1.035722930241e-15
1.542799915528e-15
-5.824433804343e-16
-5.828309204687e-16
-7.563447892989e-16
-6.924756594832e-17
4.554572086233e-16
-2.590411369259e-16
3.285804105880e-17
-1.904946684651e-16
9.081108495995e-16
-4.038510455929e-16
-1.801800727526e-16
4.242396147823e-16
-1.808452314674e-16
-2.182741003177e-16
-3.690717409553e-16
-6.005158091525e-16
-3.171236365379e-17
-5.716634753806e-17
-1.254103139976e-16
-1.539546792453e-16
-9.700949250839e-17
-2.965038675852e-16
-1.520288802140e-16
2.415143034143e-16
-6.038335844356e-17
1.680479783980e-16
-6.355786708330e-17
-2.257221605129e-17
5.051161088417e-17
1.884660852596e-17
3.069273621896e-17
1.876450875011e-17
2.657069243119e-17
5.346870604035e-18
-2.542181569149e-17
9.575046381224e-18
-3.840035624528e-17
-9.500841698953e-18
9.266670242047e-18
7.493730412681e-19
4.642578126834e-18
-1.839443483907e-17
1.914797718353e-17
4.667287428599e-18
-2.320795490903e-17
1.464179088029e-17
2.565678345902e-17
-1.680066824191e-17
-2.894563715275e-17
-1.098448930340e-17
-1.926969972247e-17
-5.917828968284e-17
2.498232023829e-18
2.240966902018e-17
3.669883093320e-17
-4.468386586243e-18
8.036967586943e-18
-2.028451406381e-17
-1.750586487251e-17
-8.667745098440e-18
-4.485891580251e-18
4.510751118158e-17
1.371799634815e-17
-4.284067624695e-17
-4.195146243774e-17
3.175485113791e-18
-1.438781515355e-17
7.655582591521e-18
4.236934430069e-17
-6.615859670340e-18
-2.822046770192e-17
2.328028941228e-17
-6.385949545550e-18
-1.272786068757e-17
3.577781071642e-17
-4.930460114967e-18
-2.101553896194e-17
-5.971470609391e-19
-1.897918120886e-17
-1.145054818106e-17
1.991510046166e-17
-1.472862599709e-17
-1.811994986148e-17
2.066172970506e-17
-2.729141557158e-17
-3.317402762269e-17
2.853528164161e-17
-1.057525262434e-17
-5.136381344005e-18
-2.830475838689e-17
-5.206018095383e-18
1.876804843872e-18
-6.577370141562e-18
2.057682587445e-17
1.272376803915e-18
-7.349275884996e-18
-3.313526216475e-17
9.316748049706e-18
-3.987827025333e-17
SCALARS C double 1
LOOKUP_TABLE default
 3.190559220786e-06
 3.809575334214e-04
 1.105072004286e-03
 2.402964806350e-03
 4.609557088014e-03
 8.204782170515e-03
 1.402093999504e-02
 2.411414429026e-02
 5.930699002276e-02
 1.109456776189e-01
 1.175618815561e-01
 1.171758590045e-01
 1.155545145368e-01
 1.136254544124e-01
 1.115997399153e-01
 1.096342965598e-01
 1.076994865045e-01
 1.058280136890e-01
 1.041651001077e-01
 1.022386296476e-01
 1.033280201922e-01
 1.041854745687e-01
 1.048649175257e-01
 1.055268497585e-01
 1.061321135353e-01
 1.066439271904e-01
 1.071434494764e-01
 1.074892923364e-01
 1.078283683496e-01
 1.081068074473e-01
 1.082538140101e-01
 1.083758479903e-01
 1.084692834807e-01
 1.085532009672e-01
 1.085636786409e-01
 1.085961171378e-01
 1.086430610359e-01
 1.086235694740e-01
 1.086420130675e-01
 1.086387940072e-01
 1.086160113507e-01
 1.086530102319e-01
 1.086449510668e-01
 1.086389285587e-01
 1.086381256368e-01
 1.086151936575e-01
 1.086643136427e-01
 1.086664147065e-01
 1.086024026870e-01
 1.086525560707e-01
 1.086111257861e-01
 1.086629694946e-01
 1.086457991327e-01
 1.086074158504e-01
 1.086422466768e-01
 1.086442053448e-01
 1.086659643366e-01
 1.086259179657e-01
 1.086352470781e-01
 1.086617838517e-01
 1.086158796232e-01
 1.086640193666e-01
 1.086314923027e-01
 1.086278040496e-01
 1.086385070166e-01
 1.086519857301e-01
 1.086260106771e-01
 1.086515001270e-01
 1.086206165414e-01
 1.086629767305e-01
 1.086309761053e-01
 1.086348323617e-01
 1.086423448292e-01
 1.086466816718e-01
 1.086374514864e-01
 1.086263198471e-01
 1.086470329710e-01
 1.086435087025e-01
 1.086178846926e-01
 1.086601434381e-01
 1.086250842728e-01
 1.086478251420e-01
 1.086428220247e-01
 1.086269773544e-01
 1.086639828900e-01
 1.086334294087e-01
 1.086382270913e-01
 1.086303375655e-01
 1.086447246582e-01
 1.086399355880e-01
 1.086314469166e-01
 1.086481322390e-01
 1.086230620339e-01
 1.086834011789e-01
 1.086243061555e-01
 1.086202743748e-01
 1.086431785505e-01
 1.086394178425e-01
 1.086247375650e-01
 1.086998706352e-01
 1.085384579448e-01
SCALARS Ca double 1
LOOKUP_TABLE default
 3.190559220786e-06
 2.691330791206e-04
 7.731844816441e-04
 1.662033657885e-03
 3.146608110302e-03
 5.522107010017e-03
 9.272469095758e-03
 1.550625140571e-02
 3.472739199476e-02
 6.271251434241e-02
 6.884014691365e-02
 7.223988954538e-02
 7.591925662443e-02
 8.047172843080e-02
 8.613830906484e-02
 9.308488048392e-02
 1.013142844657e-01
 1.120853528766e-01
 1.264291047427e-01
 1.539537438608e-01
 1.487131249340e-01
 1.421308422048e-01
 1.362277984450e-01
 1.310853247731e-01
 1.266535971200e-01
 1.228760639310e-01
 1.197911636661e-01
 1.171966435741e-01
 1.151672713714e-01
 1.135719314662e-01
 1.122625897779e-01
 1.112723802110e-01
 1.105309532647e-01
 1.099988404696e-01
 1.095623742001e-01
 1.092759087123e-01
 1.090990243735e-01
 1.089249682457e-01
 1.088383761242e-01
 1.087649004150e-01
 1.086958528070e-01
 1.087028516874e-01
 1.086756330113e-01
 1.086575565256e-01
 1.086492814261e-01
 1.086217846437e-01
 1.086681558400e-01
 1.086686250141e-01
 1.086036576614e-01
 1.086532594535e-01
 1.086115150009e-01
 1.086631821586e-01
 1.086459138878e-01
 1.086074770134e-01
 1.086422788810e-01
 1.086442220984e-01
 1.086659729493e-01
 1.086259223417e-01
 1.086352492759e-01
 1.086617849429e-01
 1.086158801589e-01
 1.086640196267e-01
 1.086314924276e-01
 1.086278041089e-01
 1.086385070445e-01
 1.086519857431e-01
 1.086260106830e-01
 1.086515001297e-01
 1.086206165427e-01
 1.086629767311e-01
 1.086309761056e-01
 1.086348323618e-01
 1.086423448293e-01
 1.086466816718e-01
 1.086374514864e-01
 1.086263198471e-01
 1.086470329710e-01
 1.086435087025e-01
 1.086178846926e-01
 1.086601434381e-01
 1.086250842728e-01
 1.086478251420e-01
 1.086428220247e-01
 1.086269773544e-01
 1.086639828900e-01
 1.086334294087e-01
 1.086382270913e-01
 1.086303375655e-01
 1.086447246582e-01
 1.086399355880e-01
 1.086314469166e-01
 1.086481322390e-01
 1.086230620339e-01
 1.086834011789e-01
 1.086243061555e-01
 1.086202743748e-01
 1.086431785505e-01
 1.086394178425e-01
 1.086247375650e-01
 1.086998706352e-01
 1.085384579448e-01
SCALARS Cl double 1
LOOKUP_TABLE default
 1.276223688314e+00
 1.275052047986e+00
 1.272927921878e+00
 1.269379379351e+00
 1.263825230517e+00
 1.255568300209e+00
 1.243814451423e+00
 1.227708700584e+00
 1.206386648736e+00
 1.179042427923e+00
 1.145021990518e+00
 1.103872538869e+00
 1.055432574010e+00
 9.998814916227e-01
 9.377657880824e-01
 8.699937524828e-01
 7.977965909446e-01
 7.226585712828e-01
 6.462233127779e-01
 5.701853212676e-01
 4.961819643231e-01
 4.256898167432e-01
 3.599448767599e-01
 2.998865937759e-01
 2.461312325251e-01
 1.989736105930e-01
 1.584133536866e-01
 1.241995945095e-01
 9.588693064347e-02
 7.289553741812e-02
 5.456918546172e-02
 4.022646260934e-02
 2.920223913572e-02
 2.087810946285e-02
 1.470199315169e-02
 1.019810840794e-02
 6.969155847460e-03
 4.692778238143e-03
 3.114297898128e-03
 2.037464257232e-03
 1.314572206265e-03
 8.369186327751e-04
 5.262014535384e-04
 3.271677109651e-04
 2.015957842590e-04
 1.235486970206e-04
 7.575047317209e-05
 4.690025732802e-05
 2.973466622259e-05
 1.966465918661e-05
 1.383893703928e-05
 1.051459789051e-05
 8.643132685415e-06
 7.603539797459e-06
 7.033594639860e-06
 6.725153091463e-06
 6.560350639969e-06
 6.473397591382e-06
 6.428085350524e-06
 6.404759724449e-06
 6.392896255683e-06
 6.386933669910e-06
 6.383971840777e-06
 6.382517451422e-06
 6.381811358616e-06
 6.381472381213e-06
 6.381311462802e-06
 6.381235853530e-06
 6.381200761401e-06
 6.381184584228e-06
 6.381177261850e-06
 6.381173954656e-06
 6.381172469795e-06
 6.381171816870e-06
 6.381171538820e-06
 6.381171421232e-06
 6.381171312266e-06
 6.381171336962e-06
 6.381171348548e-06
 6.381171311877e-06
 6.381171334842e-06
 6.381171319876e-06
 6.381171318982e-06
 6.381171332202e-06
 6.381171306165e-06
 6.381171327880e-06
 6.381171323824e-06
 6.381171331949e-06
 6.381171319831e-06
 6.381171322954e-06
 6.381171329308e-06
 6.381171317106e-06
 6.381171334530e-06
 6.381171288185e-06
 6.381171337221e-06
 6.381171340985e-06
 6.381171321869e-06
 6.381171323811e-06
 6.381171331099e-06
 6.381171280426e-06
 6.381171401613e-06
SCALARS H double 1
LOOKUP_TABLE default
 3.542055048139e+04
 3.542024904110e+04
 3.542025105472e+04
 3.542025458596e+04
 3.542026047488e+04
 3.542026996052e+04
 3.542028505910e+04
 3.542031007954e+04
 3.542030108666e+04
 3.542012893286e+04
 3.542012031870e+04
 3.542014009000e+04
 3.542016795954e+04
 3.542020072968e+04
 3.542023759220e+04
 3.542027778408e+04
 3.542032108481e+04
 3.542036570299e+04
 3.542041038300e+04
 3.542043866181e+04
 3.542048875027e+04
 3.542053869137e+04
 3.542058578596e+04
 3.542062880848e+04
 3.542066741725e+04
 3.542070145623e+04
 3.542073052202e+04
 3.542075531953e+04
 3.542077557062e+04
 3.542079194016e+04
 3.542080525278e+04
 3.542081551842e+04
 3.542082340024e+04
 3.542082922486e+04
 3.542083373704e+04
 3.542083688030e+04
 3.542083903211e+04
 3.542084075458e+04
 3.542084180639e+04
 3.542084258889e+04
 3.542084318270e+04
 3.542084339057e+04
 3.542084363315e+04
 3.542084379230e+04
 3.542084388571e+04
 3.542084405121e+04
 3.542084385390e+04
 3.542084387128e+04
 3.542084414515e+04
 3.542084394966e+04
 3.542084410551e+04
 3.542084392725e+04