# vtk DataFile Version 3.0
Unstructured Grid from OpenGeoSys
ASCII
DATASET UNSTRUCTURED_GRID
FIELD TimesAndCycles 2
TIME 1 1 double
5.000000000000e+03
CYLCE 1 1 long
50
POINTS 101 double
0.000000000000e+00 0.000000000000e+00 0.000000000000e+00
5.000000000000e-03 0.000000000000e+00 0.000000000000e+00
1.000000000000e-02 0.000000000000e+00 0.000000000000e+00
1.500000000000e-02 0.000000000000e+00 0.000000000000e+00
2.000000000000e-02 0.000000000000e+00 0.000000000000e+00
2.500000000000e-02 0.000000000000e+00 0.000000000000e+00
3.000000000000e-02 0.000000000000e+00 0.000000000000e+00
3.500000000000e-02 0.000000000000e+00 0.000000000000e+00
4.000000000000e-02 0.000000000000e+00 0.000000000000e+00
4.500000000000e-02 0.000000000000e+00 0.000000000000e+00
5.000000000000e-02 0.000000000000e+00 0.000000000000e+00
5.500000000000e-02 0.000000000000e+00 0.000000000000e+00
6.000000000000e-02 0.000000000000e+00 0.000000000000e+00
6.500000000000e-02 0.000000000000e+00 0.000000000000e+00
7.000000000000e-02 0.000000000000e+00 0.000000000000e+00
7.500000000000e-02 0.000000000000e+00 0.000000000000e+00
8.000000000000e-02 0.000000000000e+00 0.000000000000e+00
8.500000000000e-02 0.000000000000e+00 0.000000000000e+00
9.000000000000e-02 0.000000000000e+00 0.000000000000e+00
9.500000000000e-02 0.000000000000e+00 0.000000000000e+00
1.000000000000e-01 0.000000000000e+00 0.000000000000e+00
1.050000000000e-01 0.000000000000e+00 0.000000000000e+00
1.100000000000e-01 0.000000000000e+00 0.000000000000e+00
1.150000000000e-01 0.000000000000e+00 0.000000000000e+00
1.200000000000e-01 0.000000000000e+00 0.000000000000e+00
1.250000000000e-01 0.000000000000e+00 0.000000000000e+00
1.300000000000e-01 0.000000000000e+00 0.000000000000e+00
1.350000000000e-01 0.000000000000e+00 0.000000000000e+00
1.400000000000e-01 0.000000000000e+00 0.000000000000e+00
1.450000000000e-01 0.000000000000e+00 0.000000000000e+00
1.500000000000e-01 0.000000000000e+00 0.000000000000e+00
1.550000000000e-01 0.000000000000e+00 0.000000000000e+00
1.600000000000e-01 0.000000000000e+00 0.000000000000e+00
1.650000000000e-01 0.000000000000e+00 0.000000000000e+00
1.700000000000e-01 0.000000000000e+00 0.000000000000e+00
1.750000000000e-01 0.000000000000e+00 0.000000000000e+00
1.800000000000e-01 0.000000000000e+00 0.000000000000e+00
1.850000000000e-01 0.000000000000e+00 0.000000000000e+00
1.900000000000e-01 0.000000000000e+00 0.000000000000e+00
1.950000000000e-01 0.000000000000e+00 0.000000000000e+00
2.000000000000e-01 0.000000000000e+00 0.000000000000e+00
2.050000000000e-01 0.000000000000e+00 0.000000000000e+00
2.100000000000e-01 0.000000000000e+00 0.000000000000e+00
2.150000000000e-01 0.000000000000e+00 0.000000000000e+00
2.200000000000e-01 0.000000000000e+00 0.000000000000e+00
2.250000000000e-01 0.000000000000e+00 0.000000000000e+00
2.300000000000e-01 0.000000000000e+00 0.000000000000e+00
2.350000000000e-01 0.000000000000e+00 0.000000000000e+00
2.400000000000e-01 0.000000000000e+00 0.000000000000e+00
2.450000000000e-01 0.000000000000e+00 0.000000000000e+00
2.500000000000e-01 0.000000000000e+00 0.000000000000e+00
2.550000000000e-01 0.000000000000e+00 0.000000000000e+00
2.600000000000e-01 0.000000000000e+00 0.000000000000e+00
2.650000000000e-01 0.000000000000e+00 0.000000000000e+00
2.700000000000e-01 0.000000000000e+00 0.000000000000e+00
2.750000000000e-01 0.000000000000e+00 0.000000000000e+00
2.800000000000e-01 0.000000000000e+00 0.000000000000e+00
2.850000000000e-01 0.000000000000e+00 0.000000000000e+00
2.900000000000e-01 0.000000000000e+00 0.000000000000e+00
2.950000000000e-01 0.000000000000e+00 0.000000000000e+00
3.000000000000e-01 0.000000000000e+00 0.000000000000e+00
3.050000000000e-01 0.000000000000e+00 0.000000000000e+00
3.100000000000e-01 0.000000000000e+00 0.000000000000e+00
3.150000000000e-01 0.000000000000e+00 0.000000000000e+00
3.200000000000e-01 0.000000000000e+00 0.000000000000e+00
3.250000000000e-01 0.000000000000e+00 0.000000000000e+00
3.300000000000e-01 0.000000000000e+00 0.000000000000e+00
3.350000000000e-01 0.000000000000e+00 0.000000000000e+00
3.400000000000e-01 0.000000000000e+00 0.000000000000e+00
3.450000000000e-01 0.000000000000e+00 0.000000000000e+00
3.500000000000e-01 0.000000000000e+00 0.000000000000e+00
3.550000000000e-01 0.000000000000e+00 0.000000000000e+00
3.600000000000e-01 0.000000000000e+00 0.000000000000e+00
3.650000000000e-01 0.000000000000e+00 0.000000000000e+00
3.700000000000e-01 0.000000000000e+00 0.000000000000e+00
3.750000000000e-01 0.000000000000e+00 0.000000000000e+00
3.800000000000e-01 0.000000000000e+00 0.000000000000e+00
3.850000000000e-01 0.000000000000e+00 0.000000000000e+00
3.900000000000e-01 0.000000000000e+00 0.000000000000e+00
3.950000000000e-01 0.000000000000e+00 0.000000000000e+00
4.000000000000e-01 0.000000000000e+00 0.000000000000e+00
4.050000000000e-01 0.000000000000e+00 0.000000000000e+00
4.100000000000e-01 0.000000000000e+00 0.000000000000e+00
4.150000000000e-01 0.000000000000e+00 0.000000000000e+00
4.200000000000e-01 0.000000000000e+00 0.000000000000e+00
4.250000000000e-01 0.000000000000e+00 0.000000000000e+00
4.300000000000e-01 0.000000000000e+00 0.000000000000e+00
4.350000000000e-01 0.000000000000e+00 0.000000000000e+00
4.400000000000e-01 0.000000000000e+00 0.000000000000e+00
4.450000000000e-01 0.000000000000e+00 0.000000000000e+00
4.500000000000e-01 0.000000000000e+00 0.000000000000e+00
4.550000000000e-01 0.000000000000e+00 0.000000000000e+00
4.600000000000e-01 0.000000000000e+00 0.000000000000e+00
4.650000000000e-01 0.000000000000e+00 0.000000000000e+00
4.700000000000e-01 0.000000000000e+00 0.000000000000e+00
4.750000000000e-01 0.000000000000e+00 0.000000000000e+00
4.800000000000e-01 0.000000000000e+00 0.000000000000e+00
4.850000000000e-01 0.000000000000e+00 0.000000000000e+00
4.900000000000e-01 0.000000000000e+00 0.000000000000e+00
4.950000000000e-01 0.000000000000e+00 0.000000000000e+00
5.000000000000e-01 0.000000000000e+00 0.000000000000e+00
CELLS 100 300
2 0 1
2 2 3
2 4 5
2 6 7
2 8 9
2 10 11
2 12 13
2 14 15
2 16 17
2 18 19
2 20 21
2 22 23
2 24 25
2 26 27
2 28 29
2 30 31
2 32 33
2 34 35
2 36 37
2 38 39
2 40 41
2 42 43
2 44 45
2 46 47
2 48 49
2 50 51
2 52 53
2 54 55
2 56 57
2 58 59
2 60 61
2 62 63
2 64 65
2 66 67
2 68 69
2 70 71
2 72 73
2 74 75
2 76 77
2 78 79
2 80 81
2 82 83
2 84 85
2 86 87
2 88 89
2 90 91
2 92 93
2 94 95
2 96 97
2 98 99
2 1 2
2 3 4
2 5 6
2 7 8
2 9 10
2 11 12
2 13 14
2 15 16
2 17 18
2 19 20
2 21 22
2 23 24
2 25 26
2 27 28
2 29 30
2 31 32
2 33 34
2 35 36
2 37 38
2 39 40
2 41 42
2 43 44
2 45 46
2 47 48
2 49 50
2 51 52
2 53 54
2 55 56
2 57 58
2 59 60
2 61 62
2 63 64
2 65 66
2 67 68
2 69 70
2 71 72
2 73 74
2 75 76
2 77 78
2 79 80
2 81 82
2 83 84
2 85 86
2 87 88
2 89 90
2 91 92
2 93 94
2 95 96
2 97 98
2 99 100

CELL_TYPES 100
3
3
3
3
3
3
3
3
3
3
3
3
3
3
3
3
3
3
3
3
3
3
3
3
3
3
3
3
3
3
3
3
3
3
3
3
3
3
3
3
3
3
3
3
3
3
3
3
3
3
3
3
3
3
3
3
3
3
3
3
3
3
3
3
3
3
3
3
3
3
3
3
3
3
3
3
3
3
3
3
3
3
3
3
3
3
3
3
3
3
3
3
3
3
3
3
3
3
3
3

POINT_DATA 101
SCALARS 1-C double 1
LOOKUP_TABLE default
9.970358361137e-06
5.745696794583e-03
1.620015268839e-02
3.422549839374e-02
6.676497213378e-02
1.319895940620e-01
1.268573929300e-01
1.213095705591e-01
1.158217448441e-01
1.108390990812e-01
1.063652828308e-01
1.038871828807e-01
1.067315900118e-01
1.113575985234e-01
1.142604192598e-01
1.166918302738e-01
1.186331653893e-01
1.200711432129e-01
1.210635623379e-01
1.216970049337e-01
1.220764144488e-01
1.222767432047e-01
1.223811887924e-01
1.224161826266e-01
1.224118921366e-01
1.224228777761e-01
1.224186317779e-01
1.224136738387e-01
1.224036718050e-01
1.223913559007e-01
1.223967661668e-01
1.223954559337e-01
1.223905851910e-01
1.223992298192e-01
1.224019642611e-01
1.223870991975e-01
1.223940846390e-01
1.223872106672e-01
1.223936487930e-01
1.223979651725e-01
1.223877225848e-01
1.224031855209e-01
1.223932194945e-01
1.223940335534e-01
1.223842600240e-01
1.223953818942e-01
1.223945016672e-01
1.223840720601e-01
1.223881687571e-01
1.223940458316e-01
1.223941390392e-01
1.223826453216e-01
1.223875250306e-01
1.223948454760e-01
1.223929439398e-01
1.223917163132e-01
1.223939954537e-01
1.223818845927e-01
1.223942988708e-01
1.223942445441e-01
1.223943090745e-01
1.223951476465e-01
1.223857285757e-01
1.223940395408e-01
1.223951654450e-01
1.224029564199e-01
1.223945112782e-01
1.223912575622e-01
1.223857945050e-01
1.223968049912e-01
1.223941126184e-01
1.223901142361e-01
1.223936568515e-01
1.223981827219e-01
1.223886027708e-01
1.223930166965e-01
1.223942463043e-01
1.223946102639e-01
1.223941459959e-01
1.223886252666e-01
1.223881203361e-01
1.223983057441e-01
1.223953595872e-01
1.223940244734e-01
1.223885079682e-01
1.223966644075e-01
1.223844271817e-01
1.224016257826e-01
1.223938501309e-01
1.223965345018e-01
1.223976026723e-01
1.223949843786e-01
1.223960246806e-01
1.223941093476e-01
1.223941698820e-01
1.223891095175e-01
1.223939810208e-01
1.223993002761e-01
1.223937105415e-01
1.224010054242e-01
1.223928024377e-01
SCALARS 2-Ca double 1
LOOKUP_TABLE default
9.970358361137e-06
4.640059359798e-03
1.302131734108e-02
2.712163179813e-02
5.100296636414e-02
9.434591440194e-02
1.061912801279e-01
1.219914499268e-01
1.422005331169e-01
1.672666693500e-01
2.007096424912e-01
2.369517432802e-01
2.388541207559e-01
2.096100723097e-01
1.887323802172e-01
1.717854244711e-01
1.583666339395e-01
1.479988292325e-01
1.401954334339e-01
1.344729648818e-01
1.303947893941e-01
1.275588886650e-01
1.256534477859e-01
1.243945430246e-01
1.235796448207e-01
1.230961030383e-01
1.227978742955e-01
1.226225114498e-01
1.225161393282e-01
1.224506165578e-01
1.224273310342e-01
1.224108939628e-01
1.223982247985e-01
1.224029353974e-01
1.224037268106e-01
1.223879216672e-01
1.223944613275e-01
1.223873800685e-01
1.223937236287e-01
1.223979976618e-01
1.223877364520e-01
1.224031913423e-01
1.223932218991e-01
1.223940345311e-01
1.223842604154e-01
1.223953820485e-01
1.223945017272e-01
1.223840720831e-01
1.223881687658e-01
1.223940458348e-01
1.223941390404e-01
1.223826453221e-01
1.223875250308e-01
1.223948454760e-01
1.223929439398e-01
1.223917163132e-01
1.223939954537e-01
1.223818845927e-01
1.223942988708e-01
1.223942445441e-01
1.223943090745e-01
1.223951476465e-01
1.223857285757e-01
1.223940395408e-01
1.223951654450e-01
1.224029564199e-01
1.223945112782e-01
1.223912575622e-01
1.223857945050e-01
1.223968049912e-01
1.223941126184e-01
1.223901142361e-01
1.223936568515e-01
1.223981827219e-01
1.223886027708e-01
1.223930166965e-01
1.223942463043e-01
1.223946102639e-01
1.223941459959e-01
1.223886252666e-01
1.223881203361e-01
1.223983057441e-01
1.223953595872e-01
1.223940244734e-01
1.223885079682e-01
1.223966644075e-01
1.223844271817e-01
1.224016257826e-01
1.223938501309e-01
1.223965345018e-01
1.223976026723e-01
1.223949843786e-01
1.223960246806e-01
1.223941093476e-01
1.223941698820e-01
1.223891095175e-01
1.223939810208e-01
1.223993002761e-01
1.223937105415e-01
1.224010054242e-01
1.223928024377e-01
SCALARS 3-Cl double 1
LOOKUP_TABLE default
3.988143344455e+00
3.958918762167e+00
3.907294743456e+00
3.825826971190e+00
3.707613504767e+00
3.547503375279e+00
3.343263256579e+00
3.096450013045e+00
2.812717061329e+00
2.501463346140e+00
2.174841957167e+00
1.846315846316e+00
1.529045659304e+00
1.234424102640e+00
9.710024402850e-01
7.439575508970e-01
5.551031225645e-01
4.033463891635e-01
2.854233417228e-01
1.967316708259e-01
1.321088147672e-01
8.645478265873e-02
5.515661049989e-02
3.431885595898e-02
2.083514481458e-02
1.234883101608e-02
7.150126291157e-03
4.048109043332e-03
2.243992658774e-03
1.220590027245e-03
6.539948823565e-04
3.476442336252e-04
1.857794040933e-04
1.021546220072e-04
5.988576104832e-05
3.897081963517e-05
2.883440724594e-05
2.402005437681e-05
2.177800178871e-05
2.075369530816e-05
2.029438494885e-05
2.009213671736e-05
2.000464445332e-05
1.996744305002e-05
1.995188887644e-05
1.994549124856e-05
1.994290149085e-05
1.994186933675e-05
1.994146416761e-05
1.994130744295e-05
1.994124770573e-05
1.994122522060e-05
1.994121689687e-05
1.994121385249e-05
1.994121275050e-05
1.994121235596e-05
1.994121222142e-05
1.994121216754e-05
1.994121215507e-05
1.994121215053e-05
1.994121215149e-05
1.994121215103e-05
1.994121214503e-05
1.994121214843e-05
1.994121214942e-05
1.994121215098e-05
1.994121214650e-05
1.994121214713e-05
1.994121214492e-05
1.994121215001e-05
1.994121214906e-05
1.994121214762e-05
1.994121214551e-05
1.994121214979e-05
1.994121214687e-05
1.994121214815e-05
1.994121214831e-05
1.994121214576e-05
1.994121214925e-05
1.994121214384e-05
1.994121214495e-05
1.994121214908e-05
1.994121214825e-05
1.994121214667e-05
1.994121214450e-05
1.994121215215e-05
1.994121214106e-05
1.994121215003e-05
1.994121214957e-05
1.994121214778e-05
1.994121215077e-05
1.994121214979e-05
1.994121215006e-05
1.994121214706e-05
1.994121214991e-05
1.994121214590e-05
1.994121214658e-05
1.994121214946e-05
1.994121215001e-05
1.994121215373e-05
1.994121214647e-05
SCALARS 4-H double 1
LOOKUP_TABLE default
2.701109245634e-04
1.106225953808e-02
2.933325545318e-02
5.687059464043e-02
9.855182928505e-02
1.648591911198e-01
1.602339747378e-01
1.551281008788e-01
1.500083062088e-01
1.452357392716e-01
1.407810150248e-01
1.382282927524e-01
1.415797367514e-01
1.473405426834e-01
1.513892188084e-01
1.549483793596e-01
1.579729428426e-01
1.604088587364e-01
1.622639571517e-01
1.636064148486e-01
1.645403734304e-01
1.651518589893e-01
1.655502743088e-01
1.657790250775e-01
1.659259073360e-01
1.660171254855e-01
1.660567234973e-01
1.660697750227e-01
1.660783416477e-01
1.660985379865e-01
1.661079079972e-01
1.660944614844e-01
1.660956668162e-01
1.660981831532e-01
1.661141308948e-01
1.660983910145e-01
1.661103408422e-01
1.660966207213e-01
1.661124511643e-01
1.661164567670e-01
1.660989861207e-01
1.661119367130e-01
1.660956921924e-01
1.661133621404e-01
1.660995401244e-01
1.661106750487e-01
1.661049190248e-01
1.660955089166e-01
1.660900484995e-01
1.661114386171e-01
1.661167225459e-01
1.660971329924e-01
1.661067328445e-01
1.661106800309e-01
1.661100239021e-01
1.660915384818e-01
1.661089880230e-01
1.661020778336e-01
1.661027142989e-01
1.660957322516e-01
1.660925836557e-01
1.661059902501e-01
1.660915461941e-01
1.660933157422e-01
1.660981792267e-01
1.661070909699e-01
1.661116524996e-01
1.660957946183e-01
1.660968457179e-01
1.660969275500e-01
1.660917276893e-01
1.661088476246e-01
1.661049590567e-01
1.661023348127e-01
1.661045831362e-01
1.661066411194e-01
1.661118746849e-01
1.660982817214e-01
1.661162896151e-01
1.661108241399e-01
1.660900952313e-01
1.661104289966e-01
1.661162348429e-01
1.660995972836e-01
1.660946755990e-01
1.661065235216e-01
1.660944212494e-01
1.661146063761e-01
1.661143804515e-01
1.660983077986e-01
1.661060124946e-01
1.660938939007e-01
1.661066385817e-01
1.660970084505e-01
1.660911482116e-01
1.660988395527e-01
1.660985948537e-01
1.661062656739e-01
1.660961379684e-01
1.661078546651e-01
1.661007412922e-01
SCALARS 5-Mg double 1
LOOKUP_TABLE default
1.994071672227e+00
1.980565018518e+00
1.956826207075e+00
1.920017352191e+00
1.869568758153e+00
1.811395367300e+00
1.692297741091e+00
1.547543127155e+00
1.379979742391e+00
1.194304102801e+00
9.930766189234e-01
7.900933627587e-01
6.324002989078e-01
5.189595775336e-01
4.110292591851e-01
3.168851812512e-01
2.378180927321e-01
1.737455085621e-01
1.235797997654e-01
8.558987546481e-02
5.773603243835e-02
3.794524586899e-02
2.430604625645e-02
1.518106758140e-02
9.249819723198e-03
5.501190245921e-03
3.195820627922e-03
1.815216910563e-03
1.009528806174e-03
5.510343565009e-04
2.964325737567e-04
1.583840876876e-04
8.525009450443e-05
4.737173271990e-05
2.818033101315e-05
1.866294010687e-05
1.404051507851e-05
1.184062582449e-05
1.081416523774e-05
1.034435841956e-05
1.013332528864e-05
1.004024691962e-05
9.999917658215e-06
9.982743890342e-06
9.975553045419e-06
9.972591274436e-06
9.971390764497e-06
9.970911691733e-06
9.970723404696e-06
9.970650487593e-06
9.970622663882e-06
9.970612178815e-06
9.970608293830e-06
9.970606871530e-06
9.970606356122e-06
9.970606171369e-06
9.970606108451e-06
9.970606083007e-06
9.970606077280e-06
9.970606075179e-06
9.970606075717e-06
9.970606075505e-06
9.970606072511e-06
9.970606074216e-06
9.970606074711e-06
9.970606075492e-06
9.970606073250e-06
9.970606073566e-06
9.970606072459e-06
9.970606075004e-06
9.970606074528e-06
9.970606073812e-06
9.970606072754e-06
9.970606074895e-06
9.970606073436e-06
9.970606074073e-06
9.970606074155e-06
9.970606072879e-06
9.970606074623e-06
9.970606071922e-06
9.970606072474e-06
9.970606074542e-06
9.970606074126e-06
9.970606073337e-06
9.970606072251e-06
9.970606076073e-06
9.970606070529e-06
9.970606075014e-06
9.970606074783e-06
9.970606073888e-06
9.970606075386e-06
9.970606074895e-06
9.970606075030e-06
9.970606073530e-06
9.970606074955e-06
9.970606072950e-06
9.970606073291e-06
9.970606074729e-06
9.970606075005e-06
9.970606076866e-06
9.970606073236e-06
SCALARS 6-O double 1
LOOKUP_TABLE default
2.010568337471e-02
4.402400480387e-02
8.684588414906e-02
1.583565413545e-01
2.821350700766e-01
5.181674810063e-01
5.096488563760e-01
5.015588641001e-01
4.953033602192e-01
4.919755498355e-01
4.910248218131e-01
4.970981161723e-01
5.215846200769e-01
5.516015925340e-01
5.741890344621e-01
5.934805830634e-01
6.093160348584e-01
6.216776534784e-01
6.308895997416e-01
6.374527948336e-01
6.419664494838e-01
6.449279370593e-01
6.468491451934e-01
6.480063793467e-01
6.486738406661e-01
6.491343752953e-01
6.493754334007e-01
6.495067112944e-01
6.495621954709e-01
6.495814120353e-01
6.496278322428e-01
6.496309683901e-01
6.496242450864e-01
6.496552016072e-01
6.496732815758e-01
6.496217579181e-01
6.496491455192e-01
6.496218802361e-01
6.496492108381e-01
6.496642088688e-01
6.496247664221e-01
6.496776396892e-01
6.496396232193e-01
6.496509020933e-01
6.496146711442e-01
6.496536045359e-01
6.496480859686e-01
6.496120920758e-01
6.496216520499e-01
6.496499782669e-01
6.496529000160e-01
6.496086238723e-01
6.496280630074e-01
6.496519979412e-01
6.496459652948e-01
6.496330396659e-01
6.496486018701e-01
6.496088141351e-01
6.496463752315e-01
6.496427212444e-01
6.496413405859e-01
6.496505595961e-01
6.496150802785e-01
6.496408980060e-01
6.496467074692e-01
6.496745362955e-01
6.496514816197e-01
6.496337915193e-01
6.496179278437e-01
6.496510003304e-01
6.496403232082e-01
6.496368880903e-01
6.496455715787e-01
6.496578371242e-01
6.496302213839e-01
6.496444921872e-01
6.496507977718e-01
6.496450931911e-01
6.496527043420e-01
6.496334093567e-01
6.496215300831e-01
6.496622532437e-01
6.496563177081e-01
6.496439935657e-01
6.496249831844e-01
6.496553765490e-01
6.496126136292e-01
6.496743020671e-01
6.496508621888e-01
6.496508789418e-01
6.496579358460e-01
6.496440216143e-01
6.496535148855e-01
6.496429537800e-01
6.496402053063e-01
6.496288698163e-01
6.496433620188e-01
6.496631551690e-01
6.496413221635e-01
6.496690651768e-01
6.496408994355e-01
SCALARS 7-Sn double 1
LOOKUP_TABLE default
0.000000000000e+00
0.000000000000e+00
0.000000000000e+00
0.000000000000e+00
0.000000000000e+00
0.000000000000e+00
0.000000000000e+00
0.000000000000e+00
0.000000000000e+00
0.000000000000e+00
0.000000000000e+00
0.000000000000e+00
0.000000000000e+00
0.000000000000e+00
0.000000000000e+00
0.000000000000e+00
0.000000000000e+00
0.000000000000e+00
0.000000000000e+00
0.000000000000e+00
0.000000000000e+00
0.000000000000e+00
0.000000000000e+00
0.000000000000e+00
0.000000000000e+00
0.000000000000e+00
0.000000000000e+00
0.000000000000e+00
0.000000000000e+00
0.000000000000e+00
0.000000000000e+00
0.000000000000e+00
0.000000000000e+00
0.000000000000e+00
0.000000000000e+00
0.000000000000e+00
0.000000000000e+00
0.000000000000e+00
0.000000000000e+00
0.000000000000e+00
0.000000000000e+00
0.000000000000e+00
0.000000000000e+00
0.000000000000e+00
0.000000000000e+00
0.000000000000e+00
0.000000000000e+00
0.000000000000e+00
0.000000000000e+00
0.000000000000e+00
0.000000000000e+00
0.000000000000e+00
0.000000000000e+00
0.000000000000e+00
0.000000000000e+00
0.000000000000e+00
0.000000000000e+00
0.000000000000e+00
0.000000000000e+00
0.000000000000e+00
0.000000000000e+00
0.000000000000e+00
0.000000000000e+00
0.000000000000e+00
0.000000000000e+00
0.000000000000e+00
0.000000000000e+00
0.000000000000e+00
0.000000000000e+00
0.000000000000e+00
0.000000000000e+00
0.000000000000e+00
0.000000000000e+00
0.000000000000e+00
0.000000000000e+00
0.000000000000e+00
0.000000000000e+00
0.000000000000e+00
0.000000000000e+00
0.000000000000e+00
0.000000000000e+00
0.000000000000e+00
0.000000000000e+00
0.000000000000e+00
0.000000000000e+00
0.000000000000e+00
0.000000000000e+00
0.000000000000e+00
0.000000000000e+00
0.000000000000e+00
0.000000000000e+00
0.000000000000e+00
0.000000000000e+00
0.000000000000e+00
0.000000000000e+00
0.000000000000e+00
0.000000000000e+00
0.000000000000e+00
0.000000000000e+00
0.000000000000e+00
0.000000000000e+00
SCALARS 8-Zz double 1
LOOKUP_TABLE default
1.035722930241e-15
-1.029567479842e-15
-4.652456501846e-16
-3.031808401690e-16
-1.864090396325e-16
1.679360183316e-16
2.480760414898e-16
-2.266191973402e-16
-3.918467662416e-18
2.723566036790e-16
7.671400412181e-17
6.867543042489e-17
2.132915920002e-16
4.812180429944e-17
-2.116669497877e-16
4.310093868336e-18
-1.366176119062e-16
2.586095247078e-17
-3.120932356880e-18
-8.866249136877e-18
7.645160291176e-18
-1.126519858455e-17
3.473542266764e-17
3.868236841640e-17
-2.265808094732e-18
2.754948421280e-17
-1.957407519427e-17
2.683413989814e-17
1.003373220889e-17
1.690005741822e-17
2.943775434717e-17
4.290703267081e-17
-2.203981089687e-17
3.055088479356e-17
-6.599397017168e-18
-1.402454827263e-17
1.196927533612e-17
-2.884750503509e-17
3.119481405713e-17
-3.572506584365e-17
-4.016183002446e-17
-2.250206840892e-17
-1.050592243406e-17
-7.289571908826e-18
-1.376487047781e-18
5.341436527640e-17
-1.793395548972e-17
-1.566006935019e-17
-1.127476247486e-17
-1.035863219135e-17
-2.889937634693e-17
-8.371371161137e-18
3.180620114232e-18
-6.852759511476e-18
7.544589889101e-18
2.821298745631e-17
4.140558892129e-18
2.708855998566e-17
2.898584353706e-17
-1.019089392139e-17
-7.465066331401e-19
-1.763843995554e-17
2.760449739524e-17
-3.389275921131e-17
2.889244785133e-17
-1.158824286542e-20
1.440795664146e-17
-1.256545671089e-17
-7.003728571385e-18
-3.401158481079e-17
-1.319283128123e-17
-5.576244068418e-18
1.430956388932e-17
4.973778069141e-18
2.163877493932e-17
-3.580767041224e-18
4.447241114997e-17
-1.112150952008e-17
-2.997806379039e-17
-7.198352831104e-18
-1.466993368115e-17
-1.148063776229e-18
-1.173971775462e-17
-3.421791984684e-17
2.801259975350e-17
-1.362029337713e-17
1.923632984190e-18
3.491833411164e-17
-3.389973370910e-17
9.473235245602e-19
9.353505411055e-18
6.144443515755e-17
-3.071068297634e-18
-8.935562253682e-18
2.248364370622e-17
-8.877881591402e-18
4.236998815806e-17
1.870213640219e-18
-3.349048166059e-18
-2.534322665449e-17
-3.228985687403e-17
SCALARS C double 1
LOOKUP_TABLE default
 3.190559220786e-06
 1.838632944818e-03
 5.184076972533e-03
 1.095221887777e-02
 2.136490694057e-02
 5.296099036108e-02
 1.076146983911e-01
 1.137591897695e-01
 1.124863801352e-01
 1.101946033565e-01
 1.077985216457e-01
 1.059289319786e-01
 1.034553091216e-01
 1.051512499826e-01
 1.061321612016e-01
 1.068586024545e-01
 1.074296764263e-01
 1.078578630418e-01
 1.081860160350e-01
 1.083993566944e-01
 1.085103276257e-01
 1.085989661466e-01
 1.086235623809e-01
 1.086431998039e-01
 1.086552154507e-01
 1.086364534304e-01
 1.086581785251e-01
 1.086277266815e-01
 1.086330359727e-01
 1.086825452385e-01
 1.086301485224e-01
 1.086328707130e-01
 1.086300214341e-01
 1.086379880988e-01
 1.086486767904e-01
 1.086267724147e-01
 1.086510862788e-01
 1.086325965008e-01
 1.086517799694e-01
 1.086280389259e-01
 1.086316908488e-01
 1.086503888763e-01
 1.086380448431e-01
 1.086412889546e-01
 1.086368399182e-01
 1.086307654174e-01
 1.086601924750e-01
 1.086380431237e-01
 1.086226801999e-01
 1.086386513443e-01
 1.086600752285e-01
 1.086309739490e-01
 1.086454192242e-01
 1.086117630490e-01
 1.086351386504e-01
 1.086427233469e-01
 1.086647401473e-01
 1.086317390051e-01
 1.086380476915e-01
 1.086523924394e-01
 1.086247141373e-01
 1.086531234194e-01
 1.086398489776e-01
 1.086180110069e-01
 1.086489168409e-01
 1.086426299083e-01
 1.086324275215e-01
 1.086525147705e-01
 1.086231652334e-01
 1.086527901900e-01
 1.086356794966e-01
 1.086376785034e-01
 1.086428662281e-01
 1.086417348844e-01
 1.086411100631e-01
 1.086340131332e-01
 1.086392055696e-01
 1.086425174934e-01
 1.086204111300e-01
 1.086607259494e-01
 1.086194372451e-01
 1.086513216068e-01
 1.086446366298e-01
 1.086350789848e-01
 1.086411249944e-01
 1.086482354633e-01
 1.086310610891e-01
 1.086388844096e-01
 1.086444102795e-01
 1.086323218014e-01
 1.086436176311e-01
 1.086392039367e-01
 1.086366242745e-01
 1.086484064686e-01
 1.086468073177e-01
 1.086165830541e-01
 1.086454797921e-01
 1.086440564694e-01
 1.086232409312e-01
 1.086759001754e-01
 1.086084781342e-01
SCALARS Ca double 1
LOOKUP_TABLE default
 3.190559220786e-06
 1.484827047066e-03
 4.166844145136e-03
 8.678969239776e-03
 1.632103774236e-02
 3.555289214855e-02
 6.749135790420e-02
 7.650728602287e-02
 8.321582308126e-02
 9.088830502360e-02
 1.011078068309e-01
 1.121669626872e-01
 1.423704420625e-01
 1.365919598256e-01
 1.299631265872e-01
 1.244885067463e-01
 1.201443533680e-01
 1.167946994101e-01
 1.143081989138e-01
 1.124876532738e-01
 1.111722007072e-01
 1.102892483070e-01
 1.096706825423e-01
 1.092762734883e-01
 1.090288953392e-01
 1.088518849554e-01
 1.087795358156e-01
 1.086945545437e-01
 1.086690254868e-01
 1.087015085994e-01
 1.086399292546e-01
 1.086378108695e-01
 1.086324661022e-01
 1.086391738808e-01
 1.086492408048e-01
 1.086270356043e-01
 1.086512068188e-01
 1.086326507091e-01
 1.086518039168e-01
 1.086280493225e-01
 1.086316952863e-01
 1.086503907391e-01
 1.086380456125e-01
 1.086412892674e-01
 1.086368400434e-01
 1.086307654668e-01
 1.086601924942e-01
 1.086380431311e-01
 1.086226802027e-01
 1.086386513453e-01
 1.086600752289e-01
 1.086309739492e-01
 1.086454192242e-01
 1.086117630490e-01
 1.086351386504e-01
 1.086427233469e-01
 1.086647401473e-01
 1.086317390051e-01
 1.086380476915e-01
 1.086523924394e-01
 1.086247141373e-01
 1.086531234194e-01
 1.086398489776e-01
 1.086180110069e-01
 1.086489168409e-01
 1.086426299083e-01
 1.086324275215e-01
 1.086525147705e-01
 1.086231652334e-01
 1.086527901900e-01
 1.086356794966e-01
 1.086376785034e-01
 1.086428662281e-01
 1.086417348844e-01
 1.086411100631e-01
 1.086340131332e-01
 1.086392055696e-01
 1.086425174934e-01
 1.086204111300e-01
 1.086607259494e-01
 1.086194372451e-01
 1.086513216068e-01
 1.086446366298e-01
 1.086350789848e-01
 1.086411249944e-01
 1.086482354633e-01
 1.086310610891e-01
 1.086388844096e-01
 1.086444102795e-01
 1.086323218014e-01
 1.086436176311e-01
 1.086392039367e-01
 1.086366242745e-01
 1.086484064686e-01
 1.086468073177e-01
 1.086165830541e-01
 1.086454797921e-01
 1.086440564694e-01
 1.086232409312e-01
 1.086759001754e-01
 1.086084781342e-01
SCALARS Cl double 1
LOOKUP_TABLE default
 1.276223688314e+00
 1.266860873835e+00
 1.250341098264e+00
 1.224271269768e+00
 1.186442755375e+00
 1.135206011275e+00
 1.069842829865e+00
 9.908619066627e-01
 9.000675105471e-01
 8.004665935303e-01
 6.959480355902e-01
 5.908199541896e-01
 4.892933993886e-01
 3.950146855201e-01
 3.107199709287e-01
 2.380657971323e-01
 1.776325382672e-01
 1.290705100727e-01
 9.133523256334e-02
 6.295397137787e-02
 4.227471112672e-02
 2.766545864870e-02
 1.765006956949e-02
 1.098200540500e-02
 6.667229026736e-03
 3.951615673472e-03
 2.288034471229e-03
 1.295391534098e-03
 7.180757876783e-04
 3.905877928843e-04
 2.092778193753e-04
 1.112458660883e-04
 5.944925505394e-05
 3.268939420191e-05
 1.916339377805e-05
 1.247062992817e-05
 9.226986355743e-06
 7.686397453061e-06
 6.968942473016e-06
 6.641165269784e-06
 6.494186330909e-06
 6.429467054577e-06
 6.401469609549e-06
 6.389565189190e-06
 6.384587867540e-06
 6.382540639029e-06
 6.381711896830e-06
 6.381381622230e-06
 6.381251980722e-06
 6.381201818584e-06
 6.381182686965e-06
 6.381175510468e-06
 6.381172837394e-06
 6.381171889706e-06
 6.381171519408e-06
 6.381171387277e-06
 6.381171328546e-06
 6.381171332757e-06
 6.381171327046e-06
 6.381171315014e-06
 6.381171335723e-06
 6.381171314850e-06
 6.381171320487e-06
 6.381171339619e-06
 6.381171317438e-06
 6.381171324404e-06
 6.381171328494e-06
 6.381171313134e-06
 6.381171332755e-06
 6.381171315159e-06
 6.381171326822e-06
 6.381171323949e-06
 6.381171320287e-06
 6.381171323557e-06
 6.381171320825e-06
 6.381171327500e-06
 6.381171324018e-06
 6.381171320848e-06
 6.381171338136e-06
 6.381171305414e-06
 6.381171336058e-06
 6.381171316299e-06
 6.381171320262e-06
 6.381171326482e-06
 6.381171320033e-06
 6.381171319165e-06
 6.381171325381e-06
 6.381171326543e-06
 6.381171320493e-06
 6.381171329456e-06
 6.381171322347e-06
 6.381171324666e-06
 6.381171326898e-06
 6.381171316809e-06
 6.381171318913e-06
 6.381171338698e-06
 6.381171318782e-06
 6.381171322004e-06
 6.381171336194e-06
 6.381171300320e-06
 6.381171345721e-06
SCALARS H double 1
LOOKUP_TABLE default
 3.542055048139e+04
 3.542025550109e+04
 3.542026934555e+04
 3.542029267959e+04
 3.542033111070e+04
 3.542035905161e+04
 3.542019581596e+04
 3.542021300130e+04
 3.542026380728e+04
 3.542032427928e+04
 3.542038831290e+04
 3.542045428377e+04
 3.542050108250e+04
 3.542056457810e+04
 3.542062391092e+04
 3.542067553361e+04
 3.542071857836e+04
 3.542075315488e+04
 3.542077986487e+04
 3.542079990942e+04
 3.542081455557e+04
 3.542082473605e+04
 3.542083180097e+04
 3.542083642312e+04
 3.542083936060e+04
 3.542084134494e+04
 3.542084240251e+04
 3.542084320639e+04
 3.542084356478e+04
 3.542084356251e+04
 3.542084391333e+04
 3.542084396864e+04
 3.542084400594e+04
 3.542084400980e+04
 3.542084397999e+04
 3.542084404432e+04
 3.542084396076e+04
 3.542084402418e+04
 3.542084395851e+04
 3.542084406450e+04
 3.542084402960e+04
 3.542084398453e+04
 3.542084401541e+04
 3.542084400165e+04
 3.542084400136e+04
 3.542084404859e+04
 3.542084392687e+04
 3.542084399636e+04
 3.542084406813e+04
 3.542084401348e+04
 3.542084392570e+04
 3.542084402215e+04