# vtk DataFile Version 3.0
Unstructured Grid from OpenGeoSys
ASCII
DATASET UNSTRUCTURED_GRID
FIELD TimesAndCycles 2
TIME 1 1 double
1.600000000000e+04
CYLCE 1 1 long
160
POINTS 101 double
0.000000000000e+00 0.000000000000e+00 0.000000000000e+00
5.000000000000e-03 0.000000000000e+00 0.000000000000e+00
1.000000000000e-02 0.000000000000e+00 0.000000000000e+00
1.500000000000e-02 0.000000000000e+00 0.000000000000e+00
2.000000000000e-02 0.000000000000e+00 0.000000000000e+00
2.500000000000e-02 0.000000000000e+00 0.000000000000e+00
3.000000000000e-02 0.000000000000e+00 0.000000000000e+00
3.500000000000e-02 0.000000000000e+00 0.000000000000e+00
4.000000000000e-02 0.000000000000e+00 0.000000000000e+00
4.500000000000e-02 0.000000000000e+00 0.000000000000e+00
5.000000000000e-02 0.000000000000e+00 0.000000000000e+00
5.500000000000e-02 0.000000000000e+00 0.000000000000e+00
6.000000000000e-02 0.000000000000e+00 0.000000000000e+00
6.500000000000e-02 0.000000000000e+00 0.000000000000e+00
7.000000000000e-02 0.000000000000e+00 0.000000000000e+00
7.500000000000e-02 0.000000000000e+00 0.000000000000e+00
8.000000000000e-02 0.000000000000e+00 0.000000000000e+00
8.500000000000e-02 0.000000000000e+00 0.000000000000e+00
9.000000000000e-02 0.000000000000e+00 0.000000000000e+00
9.500000000000e-02 0.000000000000e+00 0.000000000000e+00
1.000000000000e-01 0.000000000000e+00 0.000000000000e+00
1.050000000000e-01 0.000000000000e+00 0.000000000000e+00
1.100000000000e-01 0.000000000000e+00 0.000000000000e+00
1.150000000000e-01 0.000000000000e+00 0.000000000000e+00
1.200000000000e-01 0.000000000000e+00 0.000000000000e+00
1.250000000000e-01 0.000000000000e+00 0.000000000000e+00
1.300000000000e-01 0.000000000000e+00 0.000000000000e+00
1.350000000000e-01 0.000000000000e+00 0.000000000000e+00
1.400000000000e-01 0.000000000000e+00 0.000000000000e+00
1.450000000000e-01 0.000000000000e+00 0.000000000000e+00
1.500000000000e-01 0.000000000000e+00 0.000000000000e+00
1.550000000000e-01 0.000000000000e+00 0.000000000000e+00
1.600000000000e-01 0.000000000000e+00 0.000000000000e+00
1.650000000000e-01 0.000000000000e+00 0.000000000000e+00
1.700000000000e-01 0.000000000000e+00 0.000000000000e+00
1.750000000000e-01 0.000000000000e+00 0.000000000000e+00
1.800000000000e-01 0.000000000000e+00 0.000000000000e+00
1.850000000000e-01 0.000000000000e+00 0.000000000000e+00
1.900000000000e-01 0.000000000000e+00 0.000000000000e+00
1.950000000000e-01 0.000000000000e+00 0.000000000000e+00
2.000000000000e-01 0.000000000000e+00 0.000000000000e+00
2.050000000000e-01 0.000000000000e+00 0.000000000000e+00
2.100000000000e-01 0.000000000000e+00 0.000000000000e+00
2.150000000000e-01 0.000000000000e+00 0.000000000000e+00
2.200000000000e-01 0.000000000000e+00 0.000000000000e+00
2.250000000000e-01 0.000000000000e+00 0.000000000000e+00
2.300000000000e-01 0.000000000000e+00 0.000000000000e+00
2.350000000000e-01 0.000000000000e+00 0.000000000000e+00
2.400000000000e-01 0.000000000000e+00 0.000000000000e+00
2.450000000000e-01 0.000000000000e+00 0.000000000000e+00
2.500000000000e-01 0.000000000000e+00 0.000000000000e+00
2.550000000000e-01 0.000000000000e+00 0.000000000000e+00
2.600000000000e-01 0.000000000000e+00 0.000000000000e+00
2.650000000000e-01 0.000000000000e+00 0.000000000000e+00
2.700000000000e-01 0.000000000000e+00 0.000000000000e+00
2.750000000000e-01 0.000000000000e+00 0.000000000000e+00
2.800000000000e-01 0.000000000000e+00 0.000000000000e+00
2.850000000000e-01 0.000000000000e+00 0.000000000000e+00
2.900000000000e-01 0.000000000000e+00 0.000000000000e+00
2.950000000000e-01 0.000000000000e+00 0.000000000000e+00
3.000000000000e-01 0.000000000000e+00 0.000000000000e+00
3.050000000000e-01 0.000000000000e+00 0.000000000000e+00
3.100000000000e-01 0.000000000000e+00 0.000000000000e+00
3.150000000000e-01 0.000000000000e+00 0.000000000000e+00
3.200000000000e-01 0.000000000000e+00 0.000000000000e+00
3.250000000000e-01 0.000000000000e+00 0.000000000000e+00
3.300000000000e-01 0.000000000000e+00 0.000000000000e+00
3.350000000000e-01 0.000000000000e+00 0.000000000000e+00
3.400000000000e-01 0.000000000000e+00 0.000000000000e+00
3.450000000000e-01 0.000000000000e+00 0.000000000000e+00
3.500000000000e-01 0.000000000000e+00 0.000000000000e+00
3.550000000000e-01 0.000000000000e+00 0.000000000000e+00
3.600000000000e-01 0.000000000000e+00 0.000000000000e+00
3.650000000000e-01 0.000000000000e+00 0.000000000000e+00
3.700000000000e-01 0.000000000000e+00 0.000000000000e+00
3.750000000000e-01 0.000000000000e+00 0.000000000000e+00
3.800000000000e-01 0.000000000000e+00 0.000000000000e+00
3.850000000000e-01 0.000000000000e+00 0.000000000000e+00
3.900000000000e-01 0.000000000000e+00 0.000000000000e+00
3.950000000000e-01 0.000000000000e+00 0.000000000000e+00
4.000000000000e-01 0.000000000000e+00 0.000000000000e+00
4.050000000000e-01 0.000000000000e+00 0.000000000000e+00
4.100000000000e-01 0.000000000000e+00 0.000000000000e+00
4.150000000000e-01 0.000000000000e+00 0.000000000000e+00
4.200000000000e-01 0.000000000000e+00 0.000000000000e+00
4.250000000000e-01 0.000000000000e+00 0.000000000000e+00
4.300000000000e-01 0.000000000000e+00 0.000000000000e+00
4.350000000000e-01 0.000000000000e+00 0.000000000000e+00
4.400000000000e-01 0.000000000000e+00 0.000000000000e+00
4.450000000000e-01 0.000000000000e+00 0.000000000000e+00
4.500000000000e-01 0.000000000000e+00 0.000000000000e+00
4.550000000000e-01 0.000000000000e+00 0.000000000000e+00
4.600000000000e-01 0.000000000000e+00 0.000000000000e+00
4.650000000000e-01 0.000000000000e+00 0.000000000000e+00
4.700000000000e-01 0.000000000000e+00 0.000000000000e+00
4.750000000000e-01 0.000000000000e+00 0.000000000000e+00
4.800000000000e-01 0.000000000000e+00 0.000000000000e+00
4.850000000000e-01 0.000000000000e+00 0.000000000000e+00
4.900000000000e-01 0.000000000000e+00 0.000000000000e+00
4.950000000000e-01 0.000000000000e+00 0.000000000000e+00
5.000000000000e-01 0.000000000000e+00 0.000000000000e+00
CELLS 100 300
2 0 1
2 2 3
2 4 5
2 6 7
2 8 9
2 10 11
2 12 13
2 14 15
2 16 17
2 18 19
2 20 21
2 22 23
2 24 25
2 26 27
2 28 29
2 30 31
2 32 33
2 34 35
2 36 37
2 38 39
2 40 41
2 42 43
2 44 45
2 46 47
2 48 49
2 50 51
2 52 53
2 54 55
2 56 57
2 58 59
2 60 61
2 62 63
2 64 65
2 66 67
2 68 69
2 70 71
2 72 73
2 74 75
2 76 77
2 78 79
2 80 81
2 82 83
2 84 85
2 86 87
2 88 89
2 90 91
2 92 93
2 94 95
2 96 97
2 98 99
2 1 2
2 3 4
2 5 6
2 7 8
2 9 10
2 11 12
2 13 14
2 15 16
2 17 18
2 19 20
2 21 22
2 23 24
2 25 26
2 27 28
2 29 30
2 31 32
2 33 34
2 35 36
2 37 38
2 39 40
2 41 42
2 43 44
2 45 46
2 47 48
2 49 50
2 51 52
2 53 54
2 55 56
2 57 58
2 59 60
2 61 62
2 63 64
2 65 66
2 67 68
2 69 70
2 71 72
2 73 74
2 75 76
2 77 78
2 79 80
2 81 82
2 83 84
2 85 86
2 87 88
2 89 90
2 91 92
2 93 94
2 95 96
2 97 98
2 99 100

CELL_TYPES 100
3
3
3
3
3
3
3
3
3
3
3
3
3
3
3
3
3
3
3
3
3
3
3
3
3
3
3
3
3
3
3
3
3
3
3
3
3
3
3
3
3
3
3
3
3
3
3
3
3
3
3
3
3
3
3
3
3
3
3
3
3
3
3
3
3
3
3
3
3
3
3
3
3
3
3
3
3
3
3
3
3
3
3
3
3
3
3
3
3
3
3
3
3
3
3
3
3
3
3
3

POINT_DATA 101
SCALARS 1-C double 1
LOOKUP_TABLE default
9.970358361137e-06
1.066528481674e-04
2.931678439967e-04
6.321710973820e-04
1.225368689537e-03
2.237183953698e-03
3.934017608749e-03
6.747078388429e-03
1.135624141995e-02
1.877158141062e-02
3.045786575237e-02
4.897734962579e-02
8.063773666630e-02
1.419646529264e-01
1.409461495547e-01
1.396602772479e-01
1.380577057272e-01
1.361136066779e-01
1.337956585403e-01
1.311074941089e-01
1.280532170771e-01
1.246727152074e-01
1.210210620878e-01
1.171790479655e-01
1.132383732614e-01
1.093186248872e-01
1.055128978687e-01
1.019108475009e-01
9.871332683239e-02
9.635013379306e-02
9.432091020077e-02
9.689074043978e-02
9.899402047915e-02
1.008185354531e-01
1.027375844223e-01
1.046755434791e-01
1.066036157514e-01
1.084896417585e-01
1.103078782957e-01
1.120231477166e-01
1.136180962556e-01
1.150727189103e-01
1.163751955941e-01
1.175126616730e-01
1.184903245327e-01
1.193182517689e-01
1.200024609225e-01
1.205608379116e-01
1.210071328771e-01
1.213517019685e-01
1.216241961642e-01
1.218286697425e-01
1.219892162747e-01
1.221067275400e-01
1.221806084953e-01
1.222446030527e-01
1.222905745428e-01
1.223239744508e-01
1.223430682846e-01
1.223633708588e-01
1.223733290858e-01
1.223690686178e-01
1.223835619445e-01
1.223801618881e-01
1.223917635586e-01
1.223905164830e-01
1.224008566835e-01
1.223943091373e-01
1.223895672591e-01
1.224003818560e-01
1.223946986126e-01
1.223866440843e-01
1.223857357015e-01
1.223896473813e-01
1.223920019892e-01
1.223990055830e-01
1.223982250029e-01
1.223890408158e-01
1.223906676570e-01
1.223914947301e-01
1.223874773148e-01
1.223978749782e-01
1.223955970335e-01
1.223957468172e-01
1.223944666299e-01
1.223858074510e-01
1.223932650433e-01
1.223940885337e-01
1.223987002015e-01
1.223940104450e-01
1.223943947063e-01
1.223854476325e-01
1.223900138340e-01
1.223996744349e-01
1.223847570363e-01
1.223843728056e-01
1.223932254380e-01
1.223948318773e-01
1.223904780102e-01
1.223942757119e-01
1.223963219440e-01
SCALARS 2-Ca double 1
LOOKUP_TABLE default
9.970358361137e-06
6.939944409439e-05
1.834539962487e-04
3.891005587087e-04
7.453169023729e-04
1.345748162131e-03
2.339337504501e-03
3.962928602959e-03
6.584568278753e-03
1.074582164614e-02
1.722571892811e-02
2.736396925391e-02
4.438682649506e-02
7.664522673905e-02
7.823890071729e-02
8.033191410083e-02
8.304560037419e-02
8.653595477686e-02
9.097892765341e-02
9.659330976546e-02
1.036240715134e-01
1.123610794778e-01
1.231301924977e-01
1.363009060547e-01
1.522779858584e-01
1.714991887537e-01
1.944794464746e-01
2.220280786457e-01
2.540898148689e-01
2.872811575396e-01
3.297545406939e-01
3.063524014975e-01
2.864349842127e-01
2.688054863519e-01
2.518765659623e-01
2.359787251635e-01
2.212581746735e-01
2.077767960955e-01
1.955641279296e-01
1.846081263963e-01
1.748841203681e-01
1.663372019837e-01
1.588972003350e-01
1.524742653995e-01
1.469829871227e-01
1.423340248527e-01
1.384296332957e-01
1.351834518042e-01
1.325077129093e-01
1.303165016615e-01
1.285502763222e-01
1.271321695477e-01
1.260142513162e-01
1.251344392470e-01
1.244379870253e-01
1.239128025924e-01
1.235125300379e-01
1.232112077399e-01
1.229816370778e-01
1.228189652509e-01
1.226955577642e-01
1.225950019620e-01
1.225406136844e-01
1.224883969895e-01
1.224657196225e-01
1.224406210898e-01
1.224345154507e-01
1.224167301071e-01
1.224043776202e-01
1.224100836441e-01
1.224010014052e-01
1.223907050550e-01
1.223883308556e-01
1.223912923363e-01
1.223930362351e-01
1.223996506339e-01
1.223986241073e-01
1.223892857916e-01
1.223908168423e-01
1.223915848700e-01
1.223875313553e-01
1.223979071262e-01
1.223956160113e-01
1.223957579348e-01
1.223944730936e-01
1.223858111807e-01
1.223932671794e-01
1.223940897480e-01
1.223987008867e-01
1.223940108288e-01
1.223943949197e-01
1.223854477503e-01
1.223900138986e-01
1.223996744700e-01
1.223847570553e-01
1.223843728158e-01
1.223932254434e-01
1.223948318802e-01
1.223904780118e-01
1.223942757128e-01
1.223963219446e-01
SCALARS 3-Cl double 1
LOOKUP_TABLE default
3.988143344455e+00
3.987990245640e+00
3.987704058150e+00
3.987209377393e+00
3.986399365734e+00
3.985126635823e+00
3.983192908755e+00
3.980337797637e+00
3.976227282236e+00
3.970442675993e+00
3.962471136577e+00
3.951698998983e+00
3.937409325163e+00
3.918784893606e+00
3.894914081781e+00
3.864817270223e+00
3.827465323293e+00
3.781816108632e+00
3.726856457646e+00
3.661650286597e+00
3.585390609950e+00
3.497452529606e+00
3.397443761297e+00
3.285249033926e+00
3.161064750340e+00
3.025420711580e+00
2.879186410791e+00
2.723560438838e+00
2.560042703583e+00
2.390390295112e+00
2.216559366929e+00
2.040637140663e+00
1.864765163940e+00
1.691062342747e+00
1.521549966178e+00
1.358083412171e+00
1.202294539137e+00
1.055547356741e+00
9.189087248641e-01
7.931346410122e-01
6.786715953717e-01
5.756715094724e-01
4.840180412227e-01
4.033615379664e-01
3.331596954049e-01
2.727209954321e-01
2.212482333636e-01
1.778798399476e-01
1.417272057567e-01
1.119067621569e-01
8.756611334017e-02
6.790400654460e-02
5.218433853202e-02
3.974471279177e-02
3.000027599070e-02
2.244368026504e-02
1.664205238599e-02
1.223181768675e-02
8.912144655149e-03
6.437664125382e-03
4.610990454033e-03
3.275444281944e-03
2.308257372363e-03
1.614435816219e-03
1.121372029390e-03
7.742292034063e-04
5.320735298554e-04
3.646972790236e-04
2.500570891609e-04
1.722436229946e-04
1.198982698659e-04
8.499729938896e-05
6.193178473827e-05
4.682106520903e-05
3.700735225608e-05
3.068851131130e-05
2.665459562251e-05
2.410112548101e-05
2.249832903418e-05
2.150063254267e-05
2.088471924610e-05
2.050760723536e-05
2.027858430260e-05
2.014061786017e-05
2.005816956221e-05
2.000928953366e-05
1.998053873219e-05
1.996375978450e-05
1.995404343946e-05
1.994846013616e-05
1.994527625756e-05
1.994347438115e-05
1.994246227923e-05
1.994189802489e-05
1.994158576139e-05
1.994141422558e-05
1.994132068580e-05
1.994127006340e-05
1.994124296957e-05
1.994122909718e-05
1.994122460387e-05
SCALARS 4-H double 1
LOOKUP_TABLE default
2.701109245634e-04
3.851198732570e-04
6.825310542153e-04
1.310638013236e-03
2.457832233854e-03
4.420981590577e-03
7.668159086114e-03
1.290644917905e-02
2.112576211243e-02
3.352755629102e-02
5.144455236706e-02
7.676358632061e-02
1.141371806491e-01
1.736041724648e-01
1.727090361318e-01
1.715742468862e-01
1.701521580963e-01
1.684155974414e-01
1.663285292179e-01
1.638851561196e-01
1.610782421344e-01
1.579334405832e-01
1.544821523640e-01
1.507935098858e-01
1.469339152658e-01
1.430360546583e-01
1.391575859959e-01
1.353670702499e-01
1.318879514333e-01
1.292400335000e-01
1.267718408728e-01
1.298845476813e-01
1.325138107978e-01
1.348738868081e-01
1.373791806963e-01
1.399229420454e-01
1.424660607140e-01
1.450030776222e-01
1.474650892848e-01
1.498411925925e-01
1.520611881575e-01
1.541384118273e-01
1.560426163470e-01
1.577323978595e-01
1.592278426638e-01
1.605276278965e-01
1.616344647812e-01
1.625621530021e-01
1.633382013854e-01
1.639591649123e-01
1.644561885119e-01
1.648613505614e-01
1.651687894398e-01
1.654080903007e-01
1.655934414574e-01
1.657244037101e-01
1.658331949848e-01
1.659003234709e-01
1.659709512906e-01
1.659930975983e-01
1.660218997340e-01
1.660540724688e-01
1.660797720077e-01
1.660775814989e-01
1.660762367703e-01
1.660864932285e-01
1.661085638261e-01
1.661088217311e-01
1.660899975344e-01
1.661079884877e-01
1.660948140577e-01
1.660902680605e-01
1.660947730004e-01
1.660897319724e-01
1.661105503900e-01
1.661074836393e-01
1.661071202470e-01
1.660964733907e-01
1.660970037569e-01
1.660998911879e-01
1.660987863419e-01
1.661070264387e-01
1.660984568778e-01
1.661097058473e-01
1.660995321759e-01
1.660916551508e-01
1.661154591486e-01
1.660916413074e-01
1.661093758701e-01
1.660916862070e-01
1.661061676608e-01
1.660934316378e-01
1.660991881810e-01
1.660968075951e-01
1.660934195396e-01
1.661032641327e-01
1.661116279436e-01
1.661056787425e-01
1.661111348458e-01
1.660959242636e-01
1.660965224879e-01
SCALARS 5-Mg double 1
LOOKUP_TABLE default
1.994071672227e+00
1.994032376224e+00
1.993961742923e+00
1.993847759235e+00
1.993679734654e+00
1.993454753703e+00
1.993191134482e+00
1.992953048604e+00
1.992885314259e+00
1.993247097761e+00
1.994467715113e+00
1.997462879863e+00
2.004955572753e+00
2.024711872991e+00
2.010164289728e+00
1.991736998259e+00
1.968744766999e+00
1.940485706217e+00
1.906244959710e+00
1.865339327642e+00
1.817124450539e+00
1.761037900533e+00
1.696612750239e+00
1.623502658874e+00
1.541492762573e+00
1.450529791924e+00
1.350626656790e+00
1.241662988274e+00
1.124644863755e+00
1.004264123810e+00
8.728460529716e-01
8.108569092737e-01
7.449416182367e-01
6.775442204745e-01
6.116360015492e-01
5.477385244013e-01
4.864927106466e-01
4.284865240337e-01
3.741981127983e-01
3.239823418265e-01
2.780697735734e-01
2.365712716628e-01
1.994870158704e-01
1.667191652567e-01
1.380871851124e-01
1.133447246322e-01
9.219694430855e-02
7.431730608104e-02
5.936302284601e-02
4.698858138537e-02
3.685697651200e-02
2.864850346697e-02
2.206713422440e-02
1.684464468879e-02
1.274275946519e-02
9.553640592745e-03
7.099070697724e-03
5.228675554091e-03
3.817503534220e-03
2.763237670557e-03
1.983266548565e-03
1.411788796690e-03
9.970769462274e-04
6.989828065945e-04
4.867299507804e-04
3.370099949389e-04
2.323779977837e-04
1.599276696683e-04
1.102181835167e-04
7.642002337237e-05
5.364634241988e-05
3.843767901632e-05
2.837073826681e-05
2.176557764832e-05
1.746943030027e-05
1.469920470632e-05
1.292819343617e-05
1.180558698325e-05
1.109997924604e-05
1.066017634488e-05
1.038831914624e-05
1.022165559632e-05
1.012031439364e-05
1.005919126355e-05
1.002262105331e-05
1.000091505101e-05
9.988133301812e-06
9.980665605061e-06
9.976336516098e-06
9.973846244493e-06
9.972424686709e-06
9.971619352045e-06
9.971166548015e-06
9.970913858930e-06
9.970773883563e-06
9.970696918476e-06
9.970654910167e-06
9.970632155222e-06
9.970619965838e-06
9.970613720065e-06
9.970611696204e-06
SCALARS 6-O double 1
LOOKUP_TABLE default
2.010568337471e-02
2.046012419404e-02
2.118125220921e-02
2.253457463506e-02
2.492421278029e-02
2.899850272547e-02
3.579960524200e-02
4.698640554569e-02
6.510851449532e-02
9.381572506427e-02
1.381917762141e-01
2.068944672466e-01
3.212054429438e-01
5.357577977294e-01
5.333287900077e-01
5.302579985946e-01
5.264199178400e-01
5.217733712574e-01
5.162489690401e-01
5.098968367214e-01
5.027619850415e-01
4.950050293521e-01
4.868245500772e-01
4.785026790419e-01
4.703388890790e-01
4.627344522083e-01
4.559583640197e-01
4.502599430572e-01
4.462859845997e-01
4.455067192879e-01
4.460073005342e-01
4.631896966648e-01
4.787285461546e-01
4.931989760221e-01
5.078371264112e-01
5.222792509921e-01
5.363459610508e-01
5.498766571475e-01
5.627116367436e-01
5.747058825479e-01
5.857521285811e-01
5.957901786824e-01
6.047746731888e-01
6.126620405093e-01
6.195023415179e-01
6.253562294450e-01
6.302789823461e-01
6.343699257222e-01
6.377240508490e-01
6.404104646731e-01
6.425720520007e-01
6.442730737867e-01
6.456160077995e-01
6.466481332074e-01
6.474010812641e-01
6.479986984495e-01
6.484521665492e-01
6.487844583106e-01
6.490264917391e-01
6.492098652061e-01
6.493363726028e-01
6.493998009952e-01
6.494996720490e-01
6.495196118683e-01
6.495759421392e-01
6.495929576804e-01
6.496459157154e-01
6.496339375616e-01
6.496154612212e-01
6.496604039119e-01
6.496391237311e-01
6.496142585167e-01
6.496148243382e-01
6.496247192393e-01
6.496426341671e-01
6.496623961442e-01
6.496600543457e-01
6.496272933646e-01
6.496325112385e-01
6.496364808168e-01
6.496239042148e-01
6.496592342732e-01
6.496481259468e-01
6.496542059414e-01
6.496452822564e-01
6.496153683763e-01
6.496496444395e-01
6.496402067769e-01
6.496629094987e-01
6.496399956346e-01
6.496483892962e-01
6.496151801436e-01
6.496317570250e-01
6.496595485850e-01
6.496131023444e-01
6.496168719460e-01
6.496476117485e-01
6.496494564853e-01
6.496391229237e-01
6.496429107772e-01
6.496493486218e-01
SCALARS 7-Sn double 1
LOOKUP_TABLE default
0.000000000000e+00
0.000000000000e+00
0.000000000000e+00
0.000000000000e+00
0.000000000000e+00
0.000000000000e+00
0.000000000000e+00
0.000000000000e+00
0.000000000000e+00
0.000000000000e+00
0.000000000000e+00
0.000000000000e+00
0.000000000000e+00
0.000000000000e+00
0.000000000000e+00
0.000000000000e+00
0.000000000000e+00
0.000000000000e+00
0.000000000000e+00
0.000000000000e+00
0.000000000000e+00
0.000000000000e+00
0.000000000000e+00
0.000000000000e+00
0.000000000000e+00
0.000000000000e+00
0.000000000000e+00
0.000000000000e+00
0.000000000000e+00
0.000000000000e+00
0.000000000000e+00
0.000000000000e+00
0.000000000000e+00
0.000000000000e+00
0.000000000000e+00
0.000000000000e+00
0.000000000000e+00
0.000000000000e+00
0.000000000000e+00
0.000000000000e+00
0.000000000000e+00
0.000000000000e+00
0.000000000000e+00
0.000000000000e+00
0.000000000000e+00
0.000000000000e+00
0.000000000000e+00
0.000000000000e+00
0.000000000000e+00
0.000000000000e+00
0.000000000000e+00
0.000000000000e+00
0.000000000000e+00
0.000000000000e+00
0.000000000000e+00
0.000000000000e+00
0.000000000000e+00
0.000000000000e+00
0.000000000000e+00
0.000000000000e+00
0.000000000000e+00
0.000000000000e+00
0.000000000000e+00
0.000000000000e+00
0.000000000000e+00
0.000000000000e+00
0.000000000000e+00
0.000000000000e+00
0.000000000000e+00
0.000000000000e+00
0.000000000000e+00
0.000000000000e+00
0.000000000000e+00
0.000000000000e+00
0.000000000000e+00
0.000000000000e+00
0.000000000000e+00
0.000000000000e+00
0.000000000000e+00
0.000000000000e+00
0.000000000000e+00
0.000000000000e+00
0.000000000000e+00
0.000000000000e+00
0.000000000000e+00
0.000000000000e+00
0.000000000000e+00
0.000000000000e+00
0.000000000000e+00
0.000000000000e+00
0.000000000000e+00
0.000000000000e+00
0.000000000000e+00
0.000000000000e+00
0.000000000000e+00
0.000000000000e+00
0.000000000000e+00
0.000000000000e+00
0.000000000000e+00
0.000000000000e+00
0.000000000000e+00
SCALARS 8-Zz double 1
LOOKUP_TABLE default
1.035722930241e-15
-1.136430687161e-14
4.211915073280e-16
2.468892657986e-16
3.972744479836e-16
5.580230467138e-16
1.212289276593e-15
-6.285343071093e-18
-9.251730118442e-16
1.896737891543e-17
-2.988930118274e-16
-5.570169788812e-16
-8.374066387684e-16
3.914532714404e-16
-3.338709365282e-16
5.626711170057e-16
6.086938259295e-17
3.316973031726e-17
2.128241435678e-16
-1.738417979541e-16
-1.663423376248e-16
-1.081806424095e-15
2.693900326041e-16
-9.152160289001e-16
-1.001926622918e-15
2.631644495638e-16
-8.918749842878e-16
-1.885058090809e-17
-2.864726865500e-16
-7.254411964053e-18
-2.231161489022e-16
1.921987773083e-17
1.097025543967e-17
4.873873905741e-16
1.202849218626e-17
1.621537685537e-17
-3.174213285260e-16
-1.339295689925e-17
-1.452630453780e-17
1.412073834612e-16
1.663065356540e-16
-2.775047521036e-16
2.002441908101e-16
-7.838869847494e-17
2.382010035379e-17
4.994060269284e-17
-3.194053021798e-17
3.298120235940e-17
-5.714491317775e-17
2.605760771343e-18
5.081860298235e-17
2.058321921525e-17
-4.053202748953e-18
2.007344315005e-17
1.970749366891e-17
-3.069639764244e-17
1.719099001307e-17
1.192833338001e-17
-3.474044874631e-17
-2.546773910529e-17
-2.891216013040e-17
-1.888402282334e-17
4.133291722896e-17
-1.726479570568e-17
-6.143654102633e-18
-3.383072563743e-17
4.369503309217e-19
2.557416362071e-17
-3.165661164426e-17
-5.954057600382e-18
-1.185963147871e-17
-1.337036438050e-17
-1.576661685709e-17
2.137521907883e-17
-1.583608494094e-17
-7.981034375001e-18
3.344866611493e-17
-2.733481009969e-17
1.980409244914e-17
-4.748573727012e-19
-3.864672864964e-17
-5.223260987587e-17
-9.608462096754e-18
2.612055847362e-17
-7.580274342561e-18
1.308603857900e-17
-2.038477681158e-17
1.661701909699e-17
7.537508200296e-18
-2.337483470524e-18
1.293713884990e-18
-2.621786298427e-17
-2.404212437662e-17
9.659888774313e-18
1.300715877676e-17
-6.752159484709e-18
4.422493455289e-18
-9.106565503198e-18
-3.246962790050e-17
7.912409356072e-18
2.145294898574e-17
SCALARS C double 1
LOOKUP_TABLE default
 3.190559220786e-06
 3.412909648907e-05
 9.381421881534e-05
 2.022958481736e-04
 3.921201070434e-04
 7.159027473859e-04
 1.258892461530e-03
 2.159076792554e-03
 3.634016960956e-03
 6.006938625866e-03
 9.746569894526e-03
 1.567283687102e-02
 2.580421566450e-02
 6.187780515921e-02
 1.129738281546e-01
 1.203486808000e-01
 1.209017355726e-01
 1.203226752218e-01
 1.194898723482e-01
 1.184627158484e-01
 1.172569461705e-01
 1.159569992901e-01
 1.144875925870e-01
 1.129449050930e-01
 1.112924039709e-01
 1.096153347175e-01
 1.079576087123e-01
 1.062921747203e-01
 1.047853845352e-01
 1.034727721238e-01
 1.013099772976e-01
 1.009559976422e-01
 1.016996051527e-01
 1.022507817204e-01
 1.027772381251e-01
 1.033246530277e-01
 1.039042614762e-01
 1.044030399327e-01
 1.049558891578e-01
 1.054523830980e-01
 1.058922570036e-01
 1.063645802568e-01
 1.067326447631e-01
 1.071350777199e-01
 1.073809796029e-01
 1.076198442014e-01
 1.078958688838e-01
 1.080653720330e-01
 1.081553615706e-01
 1.083172506389e-01
 1.083605028948e-01
 1.084763555971e-01
 1.085262249503e-01
 1.085076461888e-01
 1.085693035740e-01
 1.086002868198e-01
 1.086428401486e-01
 1.085969666357e-01
 1.086236112150e-01
 1.086649836842e-01
 1.086005712612e-01
 1.086421221291e-01
 1.086594964856e-01
 1.086034348899e-01
 1.086253728800e-01
 1.086992651054e-01
 1.086096151911e-01
 1.086131579018e-01
 1.086427431705e-01
 1.086787424108e-01
 1.085914651803e-01
 1.086309308076e-01
 1.086684037231e-01
 1.086504670238e-01
 1.086302392099e-01
 1.086220752701e-01
 1.086904721733e-01
 1.086146203229e-01
 1.086396817566e-01
 1.085927759079e-01
 1.086489944858e-01
 1.086527353564e-01
 1.086575890136e-01
 1.086204278990e-01
 1.086631395784e-01
 1.086421906263e-01
 1.086234387517e-01
 1.086391018954e-01
 1.086539731055e-01
 1.086244875100e-01
 1.086381608340e-01
 1.086438834122e-01
 1.086332334844e-01
 1.086754606124e-01
 1.086103540509e-01
 1.086465910747e-01
 1.086035744444e-01
 1.086776756239e-01
 1.086031514553e-01
 1.087031101262e-01
 1.085473443987e-01
SCALARS Ca double 1
LOOKUP_TABLE default
 3.190559220786e-06
 2.220794253959e-05
 5.870559714870e-05
 1.245128539960e-04
 2.385027021134e-04
 4.306417471691e-04
 7.485920609107e-04
 1.268144029847e-03
 2.107073275453e-03
 3.438681574070e-03
 5.512259948918e-03
 8.756517646155e-03
 1.420386150322e-02
 3.275103749583e-02
 5.897197488499e-02
 6.353490119626e-02
 6.493621669015e-02
 6.607465246690e-02
 6.745086999915e-02
 6.916399539861e-02
 7.129963270613e-02
 7.398637495199e-02
 7.728204388600e-02
 8.134004089875e-02
 8.625695258257e-02
 9.219634978544e-02
 9.933007097379e-02
 1.078892279799e-01
 1.179071735368e-01
 1.282501908000e-01
 1.581124075421e-01
 1.670806438167e-01
 1.616805540595e-01
 1.560064632756e-01
 1.505015859827e-01
 1.453415603808e-01
 1.405936237509e-01
 1.361748460692e-01
 1.322378176453e-01
 1.286795156317e-01
 1.254973336922e-01
 1.227691721301e-01
 1.203396509302e-01
 1.183227617979e-01
 1.164986079747e-01
 1.149848725008e-01
 1.137925487224e-01
 1.127445963259e-01
 1.118355376454e-01
 1.111859790905e-01
 1.105768428007e-01
 1.101734711261e-01
 1.098142328178e-01
 1.094765114246e-01
 1.092916628287e-01
 1.091341092863e-01
 1.090338648905e-01
 1.088808805520e-01
 1.088279526984e-01
 1.088107735106e-01
 1.087036841710e-01
 1.087144206115e-01
 1.087097529117e-01
 1.086380700326e-01
 1.086490387590e-01
 1.087152985378e-01
 1.086203859687e-01
 1.086203325935e-01
 1.086474824738e-01
 1.086818469749e-01
 1.085934820687e-01
 1.086322303148e-01
 1.086692341702e-01
 1.086509934080e-01
 1.086305701677e-01
 1.086222816859e-01
 1.086905998864e-01
 1.086146987150e-01
 1.086397294957e-01
 1.085928047526e-01
 1.086490117787e-01
 1.086527456437e-01
 1.086575950864e-01
 1.086204314567e-01
 1.086631416468e-01
 1.086421918198e-01
 1.086234394353e-01
 1.086391022840e-01
 1.086539733248e-01
 1.086244876328e-01
 1.086381609023e-01
 1.086438834499e-01
 1.086332335050e-01
 1.086754606237e-01
 1.086103540569e-01
 1.086465910780e-01
 1.086035744462e-01
 1.086776756248e-01
 1.086031514558e-01
 1.087031101265e-01
 1.085473443989e-01
SCALARS Cl double 1
LOOKUP_TABLE default
 1.276223688314e+00
 1.276163798995e+00
 1.276072218501e+00
 1.275913919801e+00
 1.275654714664e+00
 1.275247438884e+00
 1.274628642867e+00
 1.273715002354e+00
 1.272399630293e+00
 1.270548546257e+00
 1.267997639811e+00
 1.264550537088e+00
 1.259977816669e+00
 1.254015890966e+00
 1.246370754225e+00
 1.236738819224e+00
 1.224786091027e+00
 1.210178370637e+00
 1.192591333708e+00
 1.171725426466e+00
 1.147322411812e+00
 1.119182314032e+00
 1.087179612440e+00
 1.051277411778e+00
 1.011538567023e+00
 9.681326081882e-01
 9.213377703259e-01
 8.715376059430e-01
 8.192120746543e-01
 7.649234521639e-01
 7.092974103071e-01
 6.530021714762e-01
 5.967232657879e-01
 5.411385128447e-01
 4.868947012963e-01
 4.345855460247e-01
 3.847332397588e-01
 3.377742690898e-01
 2.940500224431e-01
 2.538024224711e-01
 2.171743452658e-01
 1.842144034193e-01
 1.548853708102e-01
 1.290753562480e-01
 1.066108259130e-01
 8.727049236552e-02
 7.079925072453e-02
 5.692140094936e-02
 4.535258833084e-02
 3.581007089076e-02
 2.802108363968e-02
 2.172922564680e-02
 1.669894495318e-02
 1.271827513893e-02
 9.600063400094e-03
 7.181959035356e-03
 5.325442917776e-03
 3.914171508770e-03
 2.851878886842e-03
 2.060047164433e-03
 1.475513120779e-03
 1.048139448266e-03
 7.386404398649e-04
 5.166181220820e-04
 3.588381185179e-04
 2.477527002532e-04
 1.702630882293e-04
 1.167028267162e-04
 8.001806078419e-05
 5.511781605136e-05
 3.836734698001e-05
 2.719906522290e-05
 1.981811960185e-05
 1.498270195466e-05
 1.184232199441e-05
 9.820298150464e-06
 8.529448410317e-06
 7.712340155603e-06
 7.199446602174e-06
 6.880184591109e-06
 6.683092802399e-06
 6.562417272049e-06
 6.489130119720e-06
 6.444981000510e-06
 6.418597581641e-06
 6.402956026581e-06
 6.393755809597e-06
 6.388386548910e-06
 6.385277316695e-06
 6.383490684900e-06
 6.382471836407e-06
 6.381895231128e-06
 6.381571368276e-06
 6.381390778529e-06
 6.381290898905e-06
 6.381235980809e-06
 6.381206081927e-06
 6.381189828603e-06
 6.381181212463e-06
 6.381176700581e-06
 6.381175377932e-06
SCALARS H double 1
LOOKUP_TABLE default
 3.542055048139e+04
 3.542024806813e+04
 3.542024816020e+04
 3.542024835016e+04
 3.542024868898e+04
 3.542024925920e+04
 3.542025019303e+04
 3.542025170792e+04
 3.542025416096e+04
 3.542025812218e+04
 3.542026448919e+04
 3.542027487287e+04
 3.542029306949e+04
 3.542027063806e+04
 3.542009148196e+04
 3.542006888254e+04
 3.542007145495e+04
 3.542007907516e+04
 3.542008874301e+04
 3.542010041897e+04
 3.542011418989e+04
 3.542012991746e+04
 3.542014800891e+04
 3.542016824122e+04
 3.542019081879e+04
 3.542021548658e+04
 3.542024201962e+04
 3.542027033890e+04
 3.542029991534e+04
 3.542033143490e+04
 3.542034855245e+04
 3.542037552906e+04
 3.542041431410e+04
 3.542045364853e+04
 3.542049240781e+04
 3.542052983604e+04
 3.542056547359e+04
 3.542059942179e+04
 3.542063084444e+04
 3.542065995307e+04
 3.542068661030e+04
 3.542071036896e+04
 3.542073178009e+04
 3.542075031869e+04
 3.542076688419e+04
 3.542078102938e+04
 3.542079275428e+04
 3.542080286691e+04
 3.542081147619e+04
 3.542081817764e+04
 3.542082399730e+04
 3.542082833723e+04