# vtk DataFile Version 3.0
Unstructured Grid from OpenGeoSys
ASCII
DATASET UNSTRUCTURED_GRID
FIELD TimesAndCycles 2
TIME 1 1 double
1.000000000000e+04
CYLCE 1 1 long
100
POINTS 101 double
0.000000000000e+00 0.000000000000e+00 0.000000000000e+00
5.000000000000e-03 0.000000000000e+00 0.000000000000e+00
1.000000000000e-02 0.000000000000e+00 0.000000000000e+00
1.500000000000e-02 0.000000000000e+00 0.000000000000e+00
2.000000000000e-02 0.000000000000e+00 0.000000000000e+00
2.500000000000e-02 0.000000000000e+00 0.000000000000e+00
3.000000000000e-02 0.000000000000e+00 0.000000000000e+00
3.500000000000e-02 0.000000000000e+00 0.000000000000e+00
4.000000000000e-02 0.000000000000e+00 0.000000000000e+00
4.500000000000e-02 0.000000000000e+00 0.000000000000e+00
5.000000000000e-02 0.000000000000e+00 0.000000000000e+00
5.500000000000e-02 0.000000000000e+00 0.000000000000e+00
6.000000000000e-02 0.000000000000e+00 0.000000000000e+00
6.500000000000e-02 0.000000000000e+00 0.000000000000e+00
7.000000000000e-02 0.000000000000e+00 0.000000000000e+00
7.500000000000e-02 0.000000000000e+00 0.000000000000e+00
8.000000000000e-02 0.000000000000e+00 0.000000000000e+00
8.500000000000e-02 0.000000000000e+00 0.000000000000e+00
9.000000000000e-02 0.000000000000e+00 0.000000000000e+00
9.500000000000e-02 0.000000000000e+00 0.000000000000e+00
1.000000000000e-01 0.000000000000e+00 0.000000000000e+00
1.050000000000e-01 0.000000000000e+00 0.000000000000e+00
1.100000000000e-01 0.000000000000e+00 0.000000000000e+00
1.150000000000e-01 0.000000000000e+00 0.000000000000e+00
1.200000000000e-01 0.000000000000e+00 0.000000000000e+00
1.250000000000e-01 0.000000000000e+00 0.000000000000e+00
1.300000000000e-01 0.000000000000e+00 0.000000000000e+00
1.350000000000e-01 0.000000000000e+00 0.000000000000e+00
1.400000000000e-01 0.000000000000e+00 0.000000000000e+00
1.450000000000e-01 0.000000000000e+00 0.000000000000e+00
1.500000000000e-01 0.000000000000e+00 0.000000000000e+00
1.550000000000e-01 0.000000000000e+00 0.000000000000e+00
1.600000000000e-01 0.000000000000e+00 0.000000000000e+00
1.650000000000e-01 0.000000000000e+00 0.000000000000e+00
1.700000000000e-01 0.000000000000e+00 0.000000000000e+00
1.750000000000e-01 0.000000000000e+00 0.000000000000e+00
1.800000000000e-01 0.000000000000e+00 0.000000000000e+00
1.850000000000e-01 0.000000000000e+00 0.000000000000e+00
1.900000000000e-01 0.000000000000e+00 0.000000000000e+00
1.950000000000e-01 0.000000000000e+00 0.000000000000e+00
2.000000000000e-01 0.000000000000e+00 0.000000000000e+00
2.050000000000e-01 0.000000000000e+00 0.000000000000e+00
2.100000000000e-01 0.000000000000e+00 0.000000000000e+00
2.150000000000e-01 0.000000000000e+00 0.000000000000e+00
2.200000000000e-01 0.000000000000e+00 0.000000000000e+00
2.250000000000e-01 0.000000000000e+00 0.000000000000e+00
2.300000000000e-01 0.000000000000e+00 0.000000000000e+00
2.350000000000e-01 0.000000000000e+00 0.000000000000e+00
2.400000000000e-01 0.000000000000e+00 0.000000000000e+00
2.450000000000e-01 0.000000000000e+00 0.000000000000e+00
2.500000000000e-01 0.000000000000e+00 0.000000000000e+00
2.550000000000e-01 0.000000000000e+00 0.000000000000e+00
2.600000000000e-01 0.000000000000e+00 0.000000000000e+00
2.650000000000e-01 0.000000000000e+00 0.000000000000e+00
2.700000000000e-01 0.000000000000e+00 0.000000000000e+00
2.750000000000e-01 0.000000000000e+00 0.000000000000e+00
2.800000000000e-01 0.000000000000e+00 0.000000000000e+00
2.850000000000e-01 0.000000000000e+00 0.000000000000e+00
2.900000000000e-01 0.000000000000e+00 0.000000000000e+00
2.950000000000e-01 0.000000000000e+00 0.000000000000e+00
3.000000000000e-01 0.000000000000e+00 0.000000000000e+00
3.050000000000e-01 0.000000000000e+00 0.000000000000e+00
3.100000000000e-01 0.000000000000e+00 0.000000000000e+00
3.150000000000e-01 0.000000000000e+00 0.000000000000e+00
3.200000000000e-01 0.000000000000e+00 0.000000000000e+00
3.250000000000e-01 0.000000000000e+00 0.000000000000e+00
3.300000000000e-01 0.000000000000e+00 0.000000000000e+00
3.350000000000e-01 0.000000000000e+00 0.000000000000e+00
3.400000000000e-01 0.000000000000e+00 0.000000000000e+00
3.450000000000e-01 0.000000000000e+00 0.000000000000e+00
3.500000000000e-01 0.000000000000e+00 0.000000000000e+00
3.550000000000e-01 0.000000000000e+00 0.000000000000e+00
3.600000000000e-01 0.000000000000e+00 0.000000000000e+00
3.650000000000e-01 0.000000000000e+00 0.000000000000e+00
3.700000000000e-01 0.000000000000e+00 0.000000000000e+00
3.750000000000e-01 0.000000000000e+00 0.000000000000e+00
3.800000000000e-01 0.000000000000e+00 0.000000000000e+00
3.850000000000e-01 0.000000000000e+00 0.000000000000e+00
3.900000000000e-01 0.000000000000e+00 0.000000000000e+00
3.950000000000e-01 0.000000000000e+00 0.000000000000e+00
4.000000000000e-01 0.000000000000e+00 0.000000000000e+00
4.050000000000e-01 0.000000000000e+00 0.000000000000e+00
4.100000000000e-01 0.000000000000e+00 0.000000000000e+00
4.150000000000e-01 0.000000000000e+00 0.000000000000e+00
4.200000000000e-01 0.000000000000e+00 0.000000000000e+00
4.250000000000e-01 0.000000000000e+00 0.000000000000e+00
4.300000000000e-01 0.000000000000e+00 0.000000000000e+00
4.350000000000e-01 0.000000000000e+00 0.000000000000e+00
4.400000000000e-01 0.000000000000e+00 0.000000000000e+00
4.450000000000e-01 0.000000000000e+00 0.000000000000e+00
4.500000000000e-01 0.000000000000e+00 0.000000000000e+00
4.550000000000e-01 0.000000000000e+00 0.000000000000e+00
4.600000000000e-01 0.000000000000e+00 0.000000000000e+00
4.650000000000e-01 0.000000000000e+00 0.000000000000e+00
4.700000000000e-01 0.000000000000e+00 0.000000000000e+00
4.750000000000e-01 0.000000000000e+00 0.000000000000e+00
4.800000000000e-01 0.000000000000e+00 0.000000000000e+00
4.850000000000e-01 0.000000000000e+00 0.000000000000e+00
4.900000000000e-01 0.000000000000e+00 0.000000000000e+00
4.950000000000e-01 0.000000000000e+00 0.000000000000e+00
5.000000000000e-01 0.000000000000e+00 0.000000000000e+00
CELLS 100 300
2 0 1
2 2 3
2 4 5
2 6 7
2 8 9
2 10 11
2 12 13
2 14 15
2 16 17
2 18 19
2 20 21
2 22 23
2 24 25
2 26 27
2 28 29
2 30 31
2 32 33
2 34 35
2 36 37
2 38 39
2 40 41
2 42 43
2 44 45
2 46 47
2 48 49
2 50 51
2 52 53
2 54 55
2 56 57
2 58 59
2 60 61
2 62 63
2 64 65
2 66 67
2 68 69
2 70 71
2 72 73
2 74 75
2 76 77
2 78 79
2 80 81
2 82 83
2 84 85
2 86 87
2 88 89
2 90 91
2 92 93
2 94 95
2 96 97
2 98 99
2 1 2
2 3 4
2 5 6
2 7 8
2 9 10
2 11 12
2 13 14
2 15 16
2 17 18
2 19 20
2 21 22
2 23 24
2 25 26
2 27 28
2 29 30
2 31 32
2 33 34
2 35 36
2 37 38
2 39 40
2 41 42
2 43 44
2 45 46
2 47 48
2 49 50
2 51 52
2 53 54
2 55 56
2 57 58
2 59 60
2 61 62
2 63 64
2 65 66
2 67 68
2 69 70
2 71 72
2 73 74
2 75 76
2 77 78
2 79 80
2 81 82
2 83 84
2 85 86
2 87 88
2 89 90
2 91 92
2 93 94
2 95 96
2 97 98
2 99 100

CELL_TYPES 100
3
3
3
3
3
3
3
3
3
3
3
3
3
3
3
3
3
3
3
3
3
3
3
3
3
3
3
3
3
3
3
3
3
3
3
3
3
3
3
3
3
3
3
3
3
3
3
3
3
3
3
3
3
3
3
3
3
3
3
3
3
3
3
3
3
3
3
3
3
3
3
3
3
3
3
3
3
3
3
3
3
3
3
3
3
3
3
3
3
3
3
3
3
3
3
3
3
3
3
3

POINT_DATA 101
SCALARS 1-C double 1
LOOKUP_TABLE default
9.970358361137e-06
8.235712677429e-04
2.379277187527e-03
5.180917833599e-03
1.006232381069e-02
1.833444546890e-02
3.170393202532e-02
5.199205784839e-02
8.281771081079e-02
1.375460966495e-01
1.349170424357e-01
1.317621385576e-01
1.281149171987e-01
1.240744671594e-01
1.197466795039e-01
1.153067040571e-01
1.109233545750e-01
1.067784849731e-01
1.031981190064e-01
1.004691964060e-01
9.766950876981e-02
1.016345354196e-01
1.044681844681e-01
1.068148309269e-01
1.091551299545e-01
1.113840352683e-01
1.134440113648e-01
1.152863905885e-01
1.168850970934e-01
1.182284083179e-01
1.193203673582e-01
1.201815564410e-01
1.208535231520e-01
1.213331932893e-01
1.216775309708e-01
1.219321023164e-01
1.221067510028e-01
1.222152846038e-01
1.222832647519e-01
1.223278020523e-01
1.223545675006e-01
1.223667034000e-01
1.223892725524e-01
1.223788407901e-01
1.223962621642e-01
1.223952283902e-01
1.223886846174e-01
1.223991573688e-01
1.224004890024e-01
1.223923765418e-01
1.223947778591e-01
1.223910859595e-01
1.223955429103e-01
1.224036178713e-01
1.224001245102e-01
1.223938089243e-01
1.223946425327e-01
1.223913358508e-01
1.224001894080e-01
1.223870541718e-01
1.223937696493e-01
1.223990051196e-01
1.223864237035e-01
1.223994755865e-01
1.224029726975e-01
1.223894667758e-01
1.223939865941e-01
1.223919369165e-01
1.223843577902e-01
1.223936211615e-01
1.223916719593e-01
1.223915348652e-01
1.223830359340e-01
1.223906097364e-01
1.223888752233e-01
1.223877248735e-01
1.223985668196e-01
1.224015637376e-01
1.224030788368e-01
1.223923233507e-01
1.223867680067e-01
1.223946712911e-01
1.223899695236e-01
1.223820061207e-01
1.223933328325e-01
1.223991442203e-01
1.223906978664e-01
1.223869329387e-01
1.224012886461e-01
1.223927285217e-01
1.223939958909e-01
1.223944817509e-01
1.223898392628e-01
1.223942468827e-01
1.224011999398e-01
1.223941217111e-01
1.223943327738e-01
1.223881065468e-01
1.224004382212e-01
1.223941415945e-01
1.223844807604e-01
SCALARS 2-Ca double 1
LOOKUP_TABLE default
9.970358361137e-06
5.685616972450e-04
1.627207522827e-03
3.505391217459e-03
6.710974009761e-03
1.201781508022e-02
2.042857046022e-02
3.303672126296e-02
5.186934901923e-02
8.386126847343e-02
8.866741752114e-02
9.501826542348e-02
1.032710278285e-01
1.138374106023e-01
1.271472818507e-01
1.436768407923e-01
1.639755603459e-01
1.886514737173e-01
2.173494194870e-01
2.491594946420e-01
2.997974398872e-01
2.701251218127e-01
2.474012485470e-01
2.282296646443e-01
2.107856885139e-01
1.952980853836e-01
1.818057302954e-01
1.702323857663e-01
1.604525684258e-01
1.523053491201e-01
1.456115929960e-01
1.401894915998e-01
1.358722079240e-01
1.324531620370e-01
1.297988623073e-01
1.277829439787e-01
1.262648738985e-01
1.251306234392e-01
1.242998770465e-01
1.237041554836e-01
1.232814986270e-01
1.229827499028e-01
1.227933542338e-01
1.226404528475e-01
1.225634576240e-01
1.225007195804e-01
1.224544021404e-01
1.224395841333e-01
1.224250491045e-01
1.224071137835e-01
1.224035131892e-01
1.223962012742e-01
1.223985026170e-01
1.224053101115e-01
1.224010807492e-01
1.223943430165e-01
1.223949374266e-01
1.223914968300e-01
1.224002763006e-01
1.223871005547e-01
1.223937941372e-01
1.223990179081e-01
1.223864303106e-01
1.223994789639e-01
1.224029744059e-01
1.223894676311e-01
1.223939870178e-01
1.223919371244e-01
1.223843578912e-01
1.223936212100e-01
1.223916719824e-01
1.223915348761e-01
1.223830359391e-01
1.223906097388e-01
1.223888752244e-01
1.223877248740e-01
1.223985668198e-01
1.224015637377e-01
1.224030788369e-01
1.223923233507e-01
1.223867680067e-01
1.223946712911e-01
1.223899695236e-01
1.223820061207e-01
1.223933328325e-01
1.223991442203e-01
1.223906978664e-01
1.223869329387e-01
1.224012886461e-01
1.223927285217e-01
1.223939958909e-01
1.223944817509e-01
1.223898392628e-01
1.223942468827e-01
1.224011999398e-01
1.223941217111e-01
1.223943327738e-01
1.223881065468e-01
1.224004382212e-01
1.223941415945e-01
1.223844807604e-01
SCALARS 3-Cl double 1
LOOKUP_TABLE default
3.988143344455e+00
3.985894766333e+00
3.981760530932e+00
3.974801531247e+00
3.963799691817e+00
3.947241606872e+00
3.923326857958e+00
3.890008544734e+00
3.845071315667e+00
3.786247881558e+00
3.711366146381e+00
3.618533907199e+00
3.506318453971e+00
3.373926392709e+00
3.221351885727e+00
3.049475600520e+00
2.860098631659e+00
2.655902392756e+00
2.440333902455e+00
2.217424723628e+00
1.991560255041e+00
1.767222020497e+00
1.548725991592e+00
1.339984824303e+00
1.144312765797e+00
9.642883894083e-01
8.016827012448e-01
6.574520711219e-01
5.317889120665e-01
4.242179755763e-01
3.337232868980e-01
2.588900941867e-01
1.980474755282e-01
1.493999086251e-01
1.111395454668e-01
8.153454451841e-02
5.899211655097e-02
4.209759331328e-02
2.963267647619e-02
2.057705611276e-02
1.409790221812e-02
9.531498441915e-03
6.360691929905e-03
4.191055532169e-03
2.727843561831e-03
1.755072030181e-03
1.117429889873e-03
7.052526827072e-04
4.424625666944e-04
2.771794383751e-04
1.746100196696e-04
1.117967120741e-04
7.382995855369e-05
5.117589835053e-05
3.782989244090e-05
3.006580745304e-05
2.560479806467e-05
2.307288246521e-05
2.165314824034e-05
2.086651135670e-05
2.043576873943e-05
2.020263575801e-05
2.007789820472e-05
2.001191056164e-05
1.997739111155e-05
1.995953184405e-05
1.995039231963e-05
1.994576524543e-05
1.994344747443e-05
1.994229858907e-05
1.994173496984e-05
1.994146128708e-05
1.994132971596e-05
1.994126710538e-05
1.994123759015e-05
1.994122381975e-05
1.994121745517e-05
1.994121453996e-05
1.994121322028e-05
1.994121261727e-05
1.994121235076e-05
1.994121223863e-05
1.994121218479e-05
1.994121215716e-05
1.994121215559e-05
1.994121215904e-05
1.994121213114e-05
1.994121215322e-05
1.994121215250e-05
1.994121214906e-05
1.994121214605e-05
1.994121214919e-05
1.994121214613e-05
1.994121214740e-05
1.994121215121e-05
1.994121214931e-05
1.994121214741e-05
1.994121214443e-05
1.994121215172e-05
1.994121214880e-05
1.994121214594e-05
SCALARS 4-H double 1
LOOKUP_TABLE default
2.701109245634e-04
1.678434630213e-03
4.695420697032e-03
1.001229538995e-02
1.886059346293e-02
3.282319088853e-02
5.325667883295e-02
8.061487109091e-02
1.165104690332e-01
1.697326919919e-01
1.673926798164e-01
1.645553966134e-01
1.612338438412e-01
1.575056653302e-01
1.534223029946e-01
1.491737422785e-01
1.448798410923e-01
1.407263525596e-01
1.370230199020e-01
1.341175224047e-01
1.308303310427e-01
1.355665237431e-01
1.391513516823e-01
1.422302003762e-01
1.453747981383e-01
1.484070467941e-01
1.512918762192e-01
1.539316321187e-01
1.562759386603e-01
1.583506527596e-01
1.600950878999e-01
1.615366931643e-01
1.627036222259e-01
1.636104728492e-01
1.643090943762e-01
1.648454324037e-01
1.652219766457e-01
1.655058906632e-01
1.657039185488e-01
1.658350619772e-01
1.659083423102e-01
1.659768016071e-01
1.660253078506e-01
1.660556004036e-01
1.660798550749e-01
1.660927025365e-01
1.660886911740e-01
1.661083066251e-01
1.661080174036e-01
1.660931079813e-01
1.661098794845e-01
1.660950977620e-01
1.661120627682e-01
1.661055960260e-01
1.660966847447e-01
1.660956001366e-01
1.660928331282e-01
1.660908723564e-01
1.661115075613e-01
1.660903741094e-01
1.660974331371e-01
1.661129390403e-01
1.660940811184e-01
1.660954652799e-01
1.660998251163e-01
1.660988142081e-01
1.660929876616e-01
1.660914822910e-01
1.660939522010e-01
1.660923691070e-01
1.661151066259e-01
1.661044083796e-01
1.660984823724e-01
1.660933665372e-01
1.660944286602e-01
1.660949647989e-01
1.661046011308e-01
1.661109758807e-01
1.661122670756e-01
1.661119692664e-01
1.660946602850e-01
1.661022885789e-01
1.660899665361e-01
1.661009568896e-01
1.661010133190e-01
1.661024953423e-01
1.660926385459e-01
1.660988874921e-01
1.661040016220e-01
1.661035112410e-01
1.660984988891e-01
1.660980997582e-01
1.660933385287e-01
1.661151163452e-01
1.661087131998e-01
1.660970239852e-01
1.661110344621e-01
1.661054795785e-01
1.661095920923e-01
1.661070015610e-01
1.660980943892e-01
SCALARS 5-Mg double 1
LOOKUP_TABLE default
1.994071672227e+00
1.993202392737e+00
1.991632335130e+00
1.989076292240e+00
1.985251195710e+00
1.979937433825e+00
1.972938790544e+00
1.963959608952e+00
1.953484019625e+00
1.946808768955e+00
1.901932698105e+00
1.846010826733e+00
1.778003116356e+00
1.697200252911e+00
1.603275340517e+00
1.496367663525e+00
1.376997110059e+00
1.246078207634e+00
1.106015650747e+00
9.600220635781e-01
7.936521964030e-01
7.151204238556e-01
6.314299317169e-01
5.485775784339e-01
4.705258243393e-01
3.982301445889e-01
3.324796316918e-01
2.737800403832e-01
2.223269847008e-01
1.780320469860e-01
1.405704178113e-01
1.094371119345e-01
8.400505299215e-02
6.357998556473e-02
4.744844139673e-02
3.491643059687e-02
2.533793537971e-02
1.813345782111e-02
1.279972594334e-02
8.912174624947e-03
6.122019982533e-03
4.149702718111e-03
2.776264283434e-03
1.833915708525e-03
1.196726320992e-03
7.720448247595e-04
4.929974218378e-04
3.121995767540e-04
1.966711812260e-04
1.238524774806e-04
7.856967969375e-05
5.078304126907e-05
3.395527256946e-05
2.389570893830e-05
1.795870723596e-05
1.449881151492e-05
1.250750509433e-05
1.137546203778e-05
1.073968158241e-05
1.038687271298e-05
1.019339643172e-05
1.008852943117e-05
1.003234202460e-05
1.000257789412e-05
9.986987171701e-06
9.978910703954e-06
9.974772411667e-06
9.972674781844e-06
9.971622812271e-06
9.971100769890e-06
9.970844381621e-06
9.970719749616e-06
9.970659770020e-06
9.970631198709e-06
9.970617716101e-06
9.970611419851e-06
9.970608507054e-06
9.970607171617e-06
9.970606566660e-06
9.970606289582e-06
9.970606167104e-06
9.970606115748e-06
9.970606090872e-06
9.970606077937e-06
9.970606077526e-06
9.970606079409e-06
9.970606065524e-06
9.970606076591e-06
9.970606076242e-06
9.970606074529e-06
9.970606073024e-06
9.970606074596e-06
9.970606073065e-06
9.970606073702e-06
9.970606075607e-06
9.970606074657e-06
9.970606073703e-06
9.970606072215e-06
9.970606075860e-06
9.970606074401e-06
9.970606072969e-06
SCALARS 6-O double 1
LOOKUP_TABLE default
2.010568337471e-02
2.335182795413e-02
2.971346906114e-02
4.108996627314e-02
6.065338979477e-02
9.319612884903e-02
1.445974411962e-01
2.206401630035e-01
3.330870065298e-01
5.265302550725e-01
5.208425631949e-01
5.141364352327e-01
5.065834464676e-01
4.985553989294e-01
4.903959636736e-01
4.826859689884e-01
4.759107525316e-01
4.705881049854e-01
4.676958687645e-01
4.680872872978e-01
4.682086250081e-01
4.925672443457e-01
5.126932572063e-01
5.306663964885e-01
5.480653381268e-01
5.643698380356e-01
5.793100374350e-01
5.926480474575e-01
6.042717733121e-01
6.141803436123e-01
6.224012487810e-01
6.290736129729e-01
6.344113407603e-01
6.384933037490e-01
6.415976725415e-01
6.439620541347e-01
6.456889044854e-01
6.469168939408e-01
6.477809091418e-01
6.483877031374e-01
6.487962827546e-01
6.490724684770e-01
6.493071594243e-01
6.493886754980e-01
6.495189338559e-01
6.495660463955e-01
6.495731138569e-01
6.496328949401e-01
6.496485755607e-01
6.496242241937e-01
6.496444315044e-01
6.496287927910e-01
6.496523554772e-01
6.496743669212e-01
6.496600320026e-01
6.496408924749e-01
6.496422106327e-01
6.496314242261e-01
6.496683664505e-01
6.496184293690e-01
6.496421247562e-01
6.496655946428e-01
6.496184269565e-01
6.496582777514e-01
6.496709505650e-01
6.496299281124e-01
6.496405747086e-01
6.496336731892e-01
6.496121708682e-01
6.496391694977e-01
6.496446906750e-01
6.496389302846e-01
6.496104704678e-01
6.496306340109e-01
6.496259614940e-01
6.496227785265e-01
6.496601225744e-01
6.496723007026e-01
6.496774916319e-01
6.496450761733e-01
6.496197556444e-01
6.496472797141e-01
6.496270133269e-01
6.496086182530e-01
6.496426266615e-01
6.496608019583e-01
6.496305342022e-01
6.496223641894e-01
6.496679883092e-01
6.496420627038e-01
6.496433586573e-01
6.496446166916e-01
6.496283085603e-01
6.496524203622e-01
6.496700779832e-01
6.496429986749e-01
6.496506370730e-01
6.496291809367e-01
6.496682322570e-01
6.496480470674e-01
6.496146109836e-01
SCALARS 7-Sn double 1
LOOKUP_TABLE default
0.000000000000e+00
0.000000000000e+00
0.000000000000e+00
0.000000000000e+00
0.000000000000e+00
0.000000000000e+00
0.000000000000e+00
0.000000000000e+00
0.000000000000e+00
0.000000000000e+00
0.000000000000e+00
0.000000000000e+00
0.000000000000e+00
0.000000000000e+00
0.000000000000e+00
0.000000000000e+00
0.000000000000e+00
0.000000000000e+00
0.000000000000e+00
0.000000000000e+00
0.000000000000e+00
0.000000000000e+00
0.000000000000e+00
0.000000000000e+00
0.000000000000e+00
0.000000000000e+00
0.000000000000e+00
0.000000000000e+00
0.000000000000e+00
0.000000000000e+00
0.000000000000e+00
0.000000000000e+00
0.000000000000e+00
0.000000000000e+00
0.000000000000e+00
0.000000000000e+00
0.000000000000e+00
0.000000000000e+00
0.000000000000e+00
0.000000000000e+00
0.000000000000e+00
0.000000000000e+00
0.000000000000e+00
0.000000000000e+00
0.000000000000e+00
0.000000000000e+00
0.000000000000e+00
0.000000000000e+00
0.000000000000e+00
0.000000000000e+00
0.000000000000e+00
0.000000000000e+00
0.000000000000e+00
0.000000000000e+00
0.000000000000e+00
0.000000000000e+00
0.000000000000e+00
0.000000000000e+00
0.000000000000e+00
0.000000000000e+00
0.000000000000e+00
0.000000000000e+00
0.000000000000e+00
0.000000000000e+00
0.000000000000e+00
0.000000000000e+00
0.000000000000e+00
0.000000000000e+00
0.000000000000e+00
0.000000000000e+00
0.000000000000e+00
0.000000000000e+00
0.000000000000e+00
0.000000000000e+00
0.000000000000e+00
0.000000000000e+00
0.000000000000e+00
0.000000000000e+00
0.000000000000e+00
0.000000000000e+00
0.000000000000e+00
0.000000000000e+00
0.000000000000e+00
0.000000000000e+00
0.000000000000e+00
0.000000000000e+00
0.000000000000e+00
0.000000000000e+00
0.000000000000e+00
0.000000000000e+00
0.000000000000e+00
0.000000000000e+00
0.000000000000e+00
0.000000000000e+00
0.000000000000e+00
0.000000000000e+00
0.000000000000e+00
0.000000000000e+00
0.000000000000e+00
0.000000000000e+00
0.000000000000e+00
SCALARS 8-Zz double 1
LOOKUP_TABLE default
1.035722930241e-15
-4.855851221195e-16
2.907797396837e-16
-1.212967169517e-16
-1.271187881694e-16
4.056471418936e-16
-6.432949123445e-16
-1.627647296230e-17
2.650879709009e-16
-8.072857303658e-16
-2.260481780194e-16
2.039108871847e-16
1.126920493689e-16
4.317327263990e-16
-6.821604251454e-16
4.249519127582e-16
2.661725973020e-16
-3.938180485339e-16
9.031806517856e-16
4.274425891465e-16
5.602445157300e-17
1.476384404576e-16
1.991044849379e-16
2.288374573841e-16
7.718186481017e-17
-6.480219106120e-17
-1.311193246872e-16
1.276251710369e-16
-8.441085851213e-17
-5.505337333293e-18
5.004273922405e-17
-1.602015192206e-17
-4.874770036747e-17
-7.456391581802e-18
4.906634229523e-17
-5.928289532494e-17
8.176195613340e-18
-1.083923815085e-17
-2.907874964456e-17
1.910866032511e-17
3.195044140446e-17
-3.572712028129e-17
-6.836246332940e-17
-5.304433882656e-17
2.578345724939e-17
-1.779684321206e-18
3.651093588912e-18
3.486793456634e-17
6.020643968458e-18
-1.424633440547e-18
5.335187141444e-17
-1.819718948575e-17
-6.699488162177e-17
-1.494671793073e-17
-1.894294499514e-17
-2.735584068532e-17
-1.445691548205e-17
1.112877514741e-17
1.133878906440e-17
-9.589097774138e-17
2.189095714319e-17
-2.662145884371e-17
6.667148369728e-18
-2.117279266306e-17
3.419092663875e-17
-3.237965057493e-17
2.519907858050e-17
-7.709952289139e-18
-1.576007156619e-17
-1.683704247106e-17
4.465207485522e-17
-3.921590140462e-17
-1.166804232128e-17
6.540214201507e-18
1.790247098800e-17
-4.637228508853e-18
-4.045651794703e-17
-4.049813435849e-17
-9.038200949208e-18
9.942819687802e-18
-1.311140700012e-17
2.748924346296e-17
1.640499717672e-17
4.294351410321e-17
1.682916369674e-17
4.486612015720e-19
-8.893577823697e-18
2.591851535279e-17
1.386726396588e-18
-5.840275132440e-18
-4.619312719843e-17
4.556615127636e-17
-3.065248112334e-17
-6.507616929861e-17
4.573861055698e-18
2.644276067665e-17
-5.795807552647e-18
-1.084190483041e-18
-1.425444307072e-17
-2.311615342793e-17
2.446943292929e-18
SCALARS C double 1
LOOKUP_TABLE default
 3.190559220786e-06
 2.635442348272e-04
 7.613728287865e-04
 1.657902697238e-03
 3.219961080647e-03
 5.867054365950e-03
 1.014531326418e-02
 1.663754873370e-02
 2.650181117366e-02
 8.175363778283e-02
 1.144416341485e-01
 1.183351815095e-01
 1.176411640621e-01
 1.160874798236e-01
 1.142761579112e-01
 1.124074098751e-01
 1.104326842864e-01
 1.085011122395e-01
 1.067370207217e-01
 1.051196812486e-01
 1.028369038544e-01
 1.022575449145e-01
 1.032801494846e-01
 1.040147138618e-01
 1.046788054008e-01
 1.052842787734e-01
 1.059071240307e-01
 1.063995745493e-01
 1.069036297079e-01
 1.073470759586e-01
 1.076476817870e-01
 1.079056029587e-01
 1.081288826511e-01
 1.082989376471e-01
 1.083874760567e-01
 1.084746054286e-01
 1.085650030971e-01
 1.085712917884e-01
 1.086107799151e-01
 1.086202806344e-01
 1.086036287895e-01
 1.086489499238e-01
 1.086390925463e-01
 1.086347022934e-01
 1.086473412540e-01
 1.086065314760e-01
 1.086647683989e-01
 1.086638779277e-01
 1.086049280414e-01
 1.086514063460e-01
 1.086089978430e-01
 1.086643400484e-01
 1.086455119059e-01
 1.086094445649e-01
 1.086435759401e-01
 1.086398433054e-01
 1.086662021831e-01
 1.086278612504e-01
 1.086337248896e-01
 1.086607953441e-01
 1.086244158284e-01
 1.086581874878e-01
 1.086316014508e-01
 1.086249978836e-01
 1.086428826285e-01
 1.086514895544e-01
 1.086226229925e-01
 1.086531274341e-01
 1.086192782691e-01
 1.086649094960e-01
 1.086299636028e-01
 1.086362903019e-01
 1.086432039977e-01
 1.086441730434e-01
 1.086383310434e-01
 1.086220335113e-01
 1.086613862634e-01
 1.086371324613e-01
 1.086165106206e-01
 1.086560538429e-01
 1.086269083377e-01
 1.086484647252e-01
 1.086436782964e-01
 1.086240557929e-01
 1.086665685154e-01
 1.086374778281e-01
 1.086224821593e-01
 1.086400691857e-01
 1.086461187550e-01
 1.086396722870e-01
 1.086270353134e-01
 1.086545702903e-01
 1.086215971242e-01
 1.086835072499e-01
 1.086233775288e-01
 1.086202067060e-01
 1.086448152845e-01
 1.086360285823e-01
 1.086255028103e-01
 1.087012010653e-01
 1.085385405658e-01
SCALARS Ca double 1
LOOKUP_TABLE default
 3.190559220786e-06
 1.819407297478e-04
 5.207092310104e-04
 1.121731272519e-03
 2.147523328728e-03
 3.845721680278e-03
 6.537177997125e-03
 1.057180813302e-02
 1.659828169543e-02
 4.570505718949e-02
 6.400765203186e-02
 6.849147262879e-02
 7.136889546978e-02
 7.461975906263e-02
 7.866569265343e-02
 8.373116149409e-02
 8.994071122562e-02
 9.753438113630e-02
 1.064085198227e-01
 1.162156853551e-01
 1.419080948773e-01
 1.552327485405e-01
 1.490186092761e-01
 1.428673581841e-01
 1.372004986877e-01
 1.321367045885e-01
 1.277828169730e-01
 1.239822472966e-01
 1.208451843025e-01
 1.182516686591e-01
 1.160608521609e-01
 1.143081256096e-01
 1.129348493130e-01
 1.118573184103e-01
 1.109862953454e-01
 1.103468699043e-01
 1.098955989672e-01
 1.095041977954e-01
 1.092560941739e-01
 1.090607125891e-01
 1.089002459808e-01
 1.088460842926e-01
 1.087683983487e-01
 1.087184179345e-01
 1.087008436622e-01
 1.086402885693e-01
 1.086857979516e-01
 1.086768144588e-01
 1.086127872537e-01
 1.086561222510e-01
 1.086117931414e-01
 1.086659769449e-01
 1.086464590096e-01
 1.086099860804e-01
 1.086438819358e-01
 1.086400142145e-01
 1.086662965489e-01
 1.086279127636e-01
 1.086337526952e-01
 1.086608101866e-01
 1.086244236645e-01
 1.086581915801e-01
 1.086316035651e-01
 1.086249989643e-01
 1.086428831752e-01
 1.086514898281e-01
 1.086226231281e-01
 1.086531275006e-01
 1.086192783014e-01
 1.086649095115e-01
 1.086299636102e-01
 1.086362903053e-01
 1.086432039993e-01
 1.086441730441e-01
 1.086383310437e-01
 1.086220335115e-01
 1.086613862635e-01
 1.086371324613e-01
 1.086165106206e-01
 1.086560538429e-01
 1.086269083377e-01
 1.086484647252e-01
 1.086436782964e-01
 1.086240557929e-01
 1.086665685154e-01
 1.086374778281e-01
 1.086224821593e-01
 1.086400691857e-01
 1.086461187550e-01
 1.086396722870e-01
 1.086270353134e-01
 1.086545702903e-01
 1.086215971242e-01
 1.086835072499e-01
 1.086233775288e-01
 1.086202067060e-01
 1.086448152845e-01
 1.086360285823e-01
 1.086255028103e-01
 1.087012010653e-01
 1.085385405658e-01
SCALARS Cl double 1
LOOKUP_TABLE default
 1.276223688314e+00
 1.275493241980e+00
 1.274170279478e+00
 1.271943387502e+00
 1.268422779793e+00
 1.263124163877e+00
 1.255471402725e+00
 1.244809484676e+00
 1.230429493395e+00
 1.211601292108e+00
 1.187635091543e+00
 1.157928255705e+00
 1.122019337729e+00
 1.079654003393e+00
 1.030830315829e+00
 9.758300705981e-01
 9.152296249910e-01
 8.498870185939e-01
 7.809052920853e-01
 7.095745501760e-01
 6.372979556305e-01
 5.655095773892e-01
 4.955910093365e-01
 4.287940129055e-01
 3.661791229041e-01
 3.085714776645e-01
 2.565377946018e-01
 2.103841158235e-01
 1.701720096131e-01
 1.357493991818e-01
 1.067911747095e-01
 8.284461534635e-02
 6.337502779461e-02
 4.780784667047e-02
 3.556456232723e-02
 2.609098657253e-02
 1.887742825788e-02
 1.347119490997e-02
 9.482431851319e-03
 6.584640862724e-03
 4.511317011803e-03
 3.050071577888e-03
 2.035416133945e-03
 1.341134289081e-03
 8.729076732474e-04
 5.616215940097e-04
 3.575766354786e-04
 2.256802720721e-04
 1.415876544196e-04
 8.869718992002e-05
 5.587506145673e-05
 3.577485489590e-05
 2.362552539695e-05
 1.637624502670e-05
 1.210553415559e-05
 9.621033411043e-06
 8.193514087590e-06
 7.383303233092e-06
 6.928989457414e-06
 6.677266283725e-06
 6.539429033439e-06
 6.464826648953e-06
 6.424910752320e-06
 6.403794769299e-06
 6.392748561551e-06
 6.387033601256e-06
 6.384108983372e-06
 6.382628300513e-06
 6.381886638868e-06
 6.381518965081e-06
 6.381338632673e-06
 6.381251049725e-06
 6.381208939983e-06
 6.381188905719e-06
 6.381179464764e-06
 6.381175069980e-06
 6.381173006891e-06
 6.381172092594e-06
 6.381171685845e-06
 6.381171461224e-06
 6.381171396097e-06
 6.381171346200e-06
 6.381171331390e-06
 6.381171335124e-06
 6.381171305981e-06
 6.381171329880e-06
 6.381171330005e-06
 6.381171323229e-06
 6.381171321927e-06
 6.381171323558e-06
 6.381171332199e-06
 6.381171313040e-06
 6.381171335250e-06
 6.381171291099e-06
 6.381171338244e-06
 6.381171338303e-06
 6.381171319617e-06
 6.381171323669e-06
 6.381171336661e-06
 6.381171278491e-06
 6.381171395098e-06
SCALARS H double 1
LOOKUP_TABLE default
 3.542055048139e+04
 3.542024866100e+04
 3.542024995319e+04
 3.542025223076e+04
 3.542025607967e+04
 3.542026242353e+04
 3.542027259329e+04
 3.542028825165e+04
 3.542031218442e+04
 3.542021842464e+04
 3.542011213649e+04
 3.542011104000e+04
 3.542012918070e+04
 3.542015356029e+04
 3.542018217390e+04
 3.542021437538e+04
 3.542025021071e+04
 3.542028885765e+04
 3.542032980489e+04
 3.542037294667e+04
 3.542040618031e+04
 3.542044031243e+04
 3.542048868065e+04
 3.542053596173e+04
 3.542058074687e+04
 3.542062220449e+04
 3.542065951092e+04
 3.542069295232e+04
 3.542072183674e+04
 3.542074651841e+04
 3.542076754661e+04
 3.542078484621e+04
 3.542079882219e+04
 3.542080993018e+04
 3.542081879344e+04
 3.542082555639e+04
 3.542083057257e+04
 3.542083453754e+04
 3.542083729630e+04
 3.542083936961e+04
 3.542084093947e+04
 3.542084179686e+04
 3.542084259015e+04
 3.542084306993e+04
 3.542084338004e+04
 3.542084376128e+04
 3.542084365223e+04
 3.542084376836e+04
 3.542084407101e+04
 3.542084390194e+04
 3.542084410212e+04
 3.542084388305e+04