# vtk DataFile Version 3.0
Unstructured Grid from OpenGeoSys
ASCII
DATASET UNSTRUCTURED_GRID
FIELD TimesAndCycles 2
TIME 1 1 double
0.000000000000e+00
CYLCE 1 1 long
0
POINTS 1849 double
0.000000000000e+00 1.400000000000e-01 0.000000000000e+00
0.000000000000e+00 1.366670000000e-01 0.000000000000e+00
3.333330000000e-03 1.366670000000e-01 0.000000000000e+00
3.333330000000e-03 1.400000000000e-01 0.000000000000e+00
0.000000000000e+00 1.333330000000e-01 0.000000000000e+00
3.333330000000e-03 1.333330000000e-01 0.000000000000e+00
0.000000000000e+00 1.300000000000e-01 0.000000000000e+00
3.333330000000e-03 1.300000000000e-01 0.000000000000e+00
0.000000000000e+00 1.266670000000e-01 0.000000000000e+00
3.333330000000e-03 1.266670000000e-01 0.000000000000e+00
0.000000000000e+00 1.233330000000e-01 0.000000000000e+00
3.333330000000e-03 1.233330000000e-01 0.000000000000e+00
0.000000000000e+00 1.200000000000e-01 0.000000000000e+00
3.333330000000e-03 1.200000000000e-01 0.000000000000e+00
0.000000000000e+00 1.166670000000e-01 0.000000000000e+00
3.333330000000e-03 1.166670000000e-01 0.000000000000e+00
0.000000000000e+00 1.133330000000e-01 0.000000000000e+00
3.333330000000e-03 1.133330000000e-01 0.000000000000e+00
0.000000000000e+00 1.100000000000e-01 0.000000000000e+00
3.333330000000e-03 1.100000000000e-01 0.000000000000e+00
0.000000000000e+00 1.066670000000e-01 0.000000000000e+00
3.333330000000e-03 1.066670000000e-01 0.000000000000e+00
0.000000000000e+00 1.033330000000e-01 0.000000000000e+00
3.333330000000e-03 1.033330000000e-01 0.000000000000e+00
0.000000000000e+00 1.000000000000e-01 0.000000000000e+00
3.333330000000e-03 1.000000000000e-01 0.000000000000e+00
0.000000000000e+00 9.666670000000e-02 0.000000000000e+00
3.333330000000e-03 9.666670000000e-02 0.000000000000e+00
0.000000000000e+00 9.333330000000e-02 0.000000000000e+00
3.333330000000e-03 9.333330000000e-02 0.000000000000e+00
0.000000000000e+00 9.000000000000e-02 0.000000000000e+00
3.333330000000e-03 9.000000000000e-02 0.000000000000e+00
0.000000000000e+00 8.666670000000e-02 0.000000000000e+00
3.333330000000e-03 8.666670000000e-02 0.000000000000e+00
0.000000000000e+00 8.333330000000e-02 0.000000000000e+00
3.333330000000e-03 8.333330000000e-02 0.000000000000e+00
0.000000000000e+00 8.000000000000e-02 0.000000000000e+00
3.333330000000e-03 8.000000000000e-02 0.000000000000e+00
0.000000000000e+00 7.666670000000e-02 0.000000000000e+00
3.333330000000e-03 7.666670000000e-02 0.000000000000e+00
0.000000000000e+00 7.333330000000e-02 0.000000000000e+00
3.333330000000e-03 7.333330000000e-02 0.000000000000e+00
0.000000000000e+00 7.000000000000e-02 0.000000000000e+00
3.333330000000e-03 7.000000000000e-02 0.000000000000e+00
0.000000000000e+00 6.666670000000e-02 0.000000000000e+00
3.333330000000e-03 6.666670000000e-02 0.000000000000e+00
0.000000000000e+00 6.333330000000e-02 0.000000000000e+00
3.333330000000e-03 6.333330000000e-02 0.000000000000e+00
0.000000000000e+00 6.000000000000e-02 0.000000000000e+00
3.333330000000e-03 6.000000000000e-02 0.000000000000e+00
0.000000000000e+00 5.666670000000e-02 0.000000000000e+00
3.333330000000e-03 5.666670000000e-02 0.000000000000e+00
0.000000000000e+00 5.333330000000e-02 0.000000000000e+00
3.333330000000e-03 5.333330000000e-02 0.000000000000e+00
0.000000000000e+00 5.000000000000e-02 0.000000000000e+00
3.333330000000e-03 5.000000000000e-02 0.000000000000e+00
0.000000000000e+00 4.666670000000e-02 0.000000000000e+00
3.333330000000e-03 4.666670000000e-02 0.000000000000e+00
0.000000000000e+00 4.333330000000e-02 0.000000000000e+00
3.333330000000e-03 4.333330000000e-02 0.000000000000e+00
0.000000000000e+00 4.000000000000e-02 0.000000000000e+00
3.333330000000e-03 4.000000000000e-02 0.000000000000e+00
0.000000000000e+00 3.666670000000e-02 0.000000000000e+00
3.333330000000e-03 3.666670000000e-02 0.000000000000e+00
0.000000000000e+00 3.333330000000e-02 0.000000000000e+00
3.333330000000e-03 3.333330000000e-02 0.000000000000e+00
0.000000000000e+00 3.000000000000e-02 0.000000000000e+00
3.333330000000e-03 3.000000000000e-02 0.000000000000e+00
0.000000000000e+00 2.666670000000e-02 0.000000000000e+00
3.333330000000e-03 2.666670000000e-02 0.000000000000e+00
0.000000000000e+00 2.333330000000e-02 0.000000000000e+00
3.333330000000e-03 2.333330000000e-02 0.000000000000e+00
0.000000000000e+00 2.000000000000e-02 0.000000000000e+00
3.333330000000e-03 2.000000000000e-02 0.000000000000e+00
0.000000000000e+00 1.666670000000e-02 0.000000000000e+00
3.333330000000e-03 1.666670000000e-02 0.000000000000e+00
0.000000000000e+00 1.333330000000e-02 0.000000000000e+00
3.333330000000e-03 1.333330000000e-02 0.000000000000e+00
0.000000000000e+00 1.000000000000e-02 0.000000000000e+00
3.333330000000e-03 1.000000000000e-02 0.000000000000e+00
0.000000000000e+00 6.666670000000e-03 0.000000000000e+00
3.333330000000e-03 6.666670000000e-03 0.000000000000e+00
0.000000000000e+00 3.333330000000e-03 0.000000000000e+00
3.333330000000e-03 3.333330000000e-03 0.000000000000e+00
0.000000000000e+00 7.771560000000e-18 0.000000000000e+00
3.333330000000e-03 7.771560000000e-18 0.000000000000e+00
6.666670000000e-03 1.366670000000e-01 0.000000000000e+00
6.666670000000e-03 1.400000000000e-01 0.000000000000e+00
6.666670000000e-03 1.333330000000e-01 0.000000000000e+00
6.666670000000e-03 1.300000000000e-01 0.000000000000e+00
6.666670000000e-03 1.266670000000e-01 0.000000000000e+00
6.666670000000e-03 1.233330000000e-01 0.000000000000e+00
6.666670000000e-03 1.200000000000e-01 0.000000000000e+00
6.666670000000e-03 1.166670000000e-01 0.000000000000e+00
6.666670000000e-03 1.133330000000e-01 0.000000000000e+00
6.666670000000e-03 1.100000000000e-01 0.000000000000e+00
6.666670000000e-03 1.066670000000e-01 0.000000000000e+00
6.666670000000e-03 1.033330000000e-01 0.000000000000e+00
6.666670000000e-03 1.000000000000e-01 0.000000000000e+00
6.666670000000e-03 9.666670000000e-02 0.000000000000e+00
6.666670000000e-03 9.333330000000e-02 0.000000000000e+00
6.666670000000e-03 9.000000000000e-02 0.000000000000e+00
6.666670000000e-03 8.666670000000e-02 0.000000000000e+00
6.666670000000e-03 8.333330000000e-02 0.000000000000e+00
6.666670000000e-03 8.000000000000e-02 0.000000000000e+00
6.666670000000e-03 7.666670000000e-02 0.000000000000e+00
6.666670000000e-03 7.333330000000e-02 0.000000000000e+00
6.666670000000e-03 7.000000000000e-02 0.000000000000e+00
6.666670000000e-03 6.666670000000e-02 0.000000000000e+00
6.666670000000e-03 6.333330000000e-02 0.000000000000e+00
6.666670000000e-03 6.000000000000e-02 0.000000000000e+00
6.666670000000e-03 5.666670000000e-02 0.000000000000e+00
6.666670000000e-03 5.333330000000e-02 0.000000000000e+00
6.666670000000e-03 5.000000000000e-02 0.000000000000e+00
6.666670000000e-03 4.666670000000e-02 0.000000000000e+00
6.666670000000e-03 4.333330000000e-02 0.000000000000e+00
6.666670000000e-03 4.000000000000e-02 0.000000000000e+00
6.666670000000e-03 3.666670000000e-02 0.000000000000e+00
6.666670000000e-03 3.333330000000e-02 0.000000000000e+00
6.666670000000e-03 3.000000000000e-02 0.000000000000e+00
6.666670000000e-03 2.666670000000e-02 0.000000000000e+00
6.666670000000e-03 2.333330000000e-02 0.000000000000e+00
6.666670000000e-03 2.000000000000e-02 0.000000000000e+00
6.666670000000e-03 1.666670000000e-02 0.000000000000e+00
6.666670000000e-03 1.333330000000e-02 0.000000000000e+00
6.666670000000e-03 1.000000000000e-02 0.000000000000e+00
6.666670000000e-03 6.666670000000e-03 0.000000000000e+00
6.666670000000e-03 3.333330000000e-03 0.000000000000e+00
6.666670000000e-03 7.771560000000e-18 0.000000000000e+00
1.000000000000e-02 1.366670000000e-01 0.000000000000e+00
1.000000000000e-02 1.400000000000e-01 0.000000000000e+00
1.000000000000e-02 1.333330000000e-01 0.000000000000e+00
1.000000000000e-02 1.300000000000e-01 0.000000000000e+00
1.000000000000e-02 1.266670000000e-01 0.000000000000e+00
1.000000000000e-02 1.233330000000e-01 0.000000000000e+00
1.000000000000e-02 1.200000000000e-01 0.000000000000e+00
1.000000000000e-02 1.166670000000e-01 0.000000000000e+00
1.000000000000e-02 1.133330000000e-01 0.000000000000e+00
1.000000000000e-02 1.100000000000e-01 0.000000000000e+00
1.000000000000e-02 1.066670000000e-01 0.000000000000e+00
1.000000000000e-02 1.033330000000e-01 0.000000000000e+00
1.000000000000e-02 1.000000000000e-01 0.000000000000e+00
1.000000000000e-02 9.666670000000e-02 0.000000000000e+00
1.000000000000e-02 9.333330000000e-02 0.000000000000e+00
1.000000000000e-02 9.000000000000e-02 0.000000000000e+00
1.000000000000e-02 8.666670000000e-02 0.000000000000e+00
1.000000000000e-02 8.333330000000e-02 0.000000000000e+00
1.000000000000e-02 8.000000000000e-02 0.000000000000e+00
1.000000000000e-02 7.666670000000e-02 0.000000000000e+00
1.000000000000e-02 7.333330000000e-02 0.000000000000e+00
1.000000000000e-02 7.000000000000e-02 0.000000000000e+00
1.000000000000e-02 6.666670000000e-02 0.000000000000e+00
1.000000000000e-02 6.333330000000e-02 0.000000000000e+00
1.000000000000e-02 6.000000000000e-02 0.000000000000e+00
1.000000000000e-02 5.666670000000e-02 0.000000000000e+00
1.000000000000e-02 5.333330000000e-02 0.000000000000e+00
1.000000000000e-02 5.000000000000e-02 0.000000000000e+00
1.000000000000e-02 4.666670000000e-02 0.000000000000e+00
1.000000000000e-02 4.333330000000e-02 0.000000000000e+00
1.000000000000e-02 4.000000000000e-02 0.000000000000e+00
1.000000000000e-02 3.666670000000e-02 0.000000000000e+00
1.000000000000e-02 3.333330000000e-02 0.000000000000e+00
1.000000000000e-02 3.000000000000e-02 0.000000000000e+00
1.000000000000e-02 2.666670000000e-02 0.000000000000e+00
1.000000000000e-02 2.333330000000e-02 0.000000000000e+00
1.000000000000e-02 2.000000000000e-02 0.000000000000e+00
1.000000000000e-02 1.666670000000e-02 0.000000000000e+00
1.000000000000e-02 1.333330000000e-02 0.000000000000e+00
1.000000000000e-02 1.000000000000e-02 0.000000000000e+00
1.000000000000e-02 6.666670000000e-03 0.000000000000e+00
1.000000000000e-02 3.333330000000e-03 0.000000000000e+00
1.000000000000e-02 7.771560000000e-18 0.000000000000e+00
[...]
POINT_DATA 1849
SCALARS HEAD double 1
LOOKUP_TABLE default
1.000242443564e+01
1.000242556759e+01
1.000242440266e+01
1.000242336897e+01
1.000242918594e+01
1.000242768935e+01
1.000243603893e+01
1.000243384661e+01
1.000244791283e+01
1.000244406896e+01
1.000246811449e+01
1.000246166746e+01
1.000252702305e+01
1.000247923973e+01
1.000254133333e+01
1.000249102453e+01
1.000254128981e+01
1.000248949344e+01
1.000252982275e+01
1.000247764386e+01
1.000250797206e+01
1.000245607983e+01
1.000247487636e+01
1.000242438072e+01
1.000242780332e+01
1.000237975290e+01
1.000233665141e+01
1.000232987321e+01
1.000228486282e+01
1.000228064372e+01
1.000224212688e+01
1.000223954746e+01
1.000220516012e+01
1.000220330472e+01
1.000217210993e+01
1.000217066835e+01
1.000214204965e+01
1.000214086319e+01
1.000211441973e+01
1.000211340211e+01
1.000208885841e+01
1.000208795841e+01
1.000206511927e+01
1.000206430470e+01
1.000204302332e+01
1.000204227302e+01
1.000202243694e+01
1.000202173647e+01
1.000200325886e+01
1.000200259806e+01
1.000198540721e+01
1.000198477872e+01
1.000196881563e+01
1.000196821398e+01
1.000195343056e+01
1.000195285160e+01
1.000193920554e+01
1.000193864598e+01
1.000192610092e+01
1.000192555816e+01
1.000191408358e+01
1.000191355546e+01
1.000190312360e+01
1.000190260831e+01
1.000189319490e+01
1.000189269085e+01
1.000188427543e+01
1.000188378123e+01
1.000187634510e+01
1.000187585949e+01
1.000186938646e+01
1.000186890827e+01
1.000186338503e+01
1.000186291316e+01
1.000185832790e+01
1.000185786132e+01
1.000185420436e+01
1.000185374205e+01
1.000185100607e+01
1.000185054707e+01
1.000184872626e+01
1.000184826960e+01
1.000184736024e+01
1.000184690499e+01
1.000184690521e+01
1.000184645043e+01
1.000242111350e+01
1.000242034739e+01
1.000242351548e+01
1.000242784059e+01
1.000243451840e+01
1.000244262679e+01
1.000244982132e+01
1.000245231374e+01
1.000244768233e+01
1.000243483969e+01
1.000241397628e+01
1.000238509951e+01
1.000234951579e+01
1.000230981360e+01
1.000226993772e+01
1.000223234081e+01
1.000219800250e+01
1.000216647867e+01
1.000213738082e+01
1.000211039602e+01
1.000208528829e+01
1.000206188088e+01
1.000204003580e+01
1.000201964477e+01
1.000200062272e+01
1.000198289853e+01
1.000196641310e+01
1.000195111786e+01
1.000193696987e+01
1.000192393198e+01
1.000191197288e+01
1.000190106396e+01
1.000189118007e+01
1.000188229988e+01
1.000187440380e+01
1.000186747478e+01
1.000186149860e+01
1.000185646256e+01
1.000185235612e+01
1.000184917102e+01
1.000184690059e+01
1.000184554018e+01
1.000184508702e+01
1.000241625762e+01
1.000241586167e+01
1.000241746675e+01
1.000241950427e+01
1.000242211351e+01
1.000242448633e+01
1.000242509161e+01
1.000242212346e+01
1.000241403053e+01
1.000239999515e+01
1.000237982124e+01
1.000235392582e+01
1.000232337059e+01
1.000228990143e+01
1.000225550997e+01
1.000222187522e+01
1.000218990501e+01
1.000215989684e+01
1.000213181073e+01
1.000210553051e+01
1.000208093175e+01
1.000205790412e+01
1.000203635077e+01
1.000201618975e+01
1.000199735330e+01
1.000197978200e+01
1.000196342476e+01
1.000194823866e+01
1.000193418470e+01
1.000192122862e+01
1.000190934115e+01
1.000189849518e+01
1.000188866667e+01
1.000187983512e+01
1.000187198151e+01
1.000186508925e+01
1.000185914445e+01
1.000185413465e+01
1.000185004946e+01
1.000184688080e+01
1.000184462204e+01
1.000184326861e+01
1.000184281778e+01
1.000241059863e+01
1.000241060614e+01
1.000241055247e+01
1.000241035042e+01
1.000240967636e+01
1.000240790745e+01
1.000240413375e+01
1.000239732272e+01
1.000238658563e+01
1.000237139025e+01
1.000235163956e+01
1.000232768181e+01
1.000230032635e+01
1.000227069329e+01
1.000224004154e+01
1.000220947965e+01
1.000217978479e+01
1.000215137916e+01
1.000212443590e+01
1.000209898799e+01
1.000207501046e+01
1.000205245804e+01
1.000203127695e+01
1.000201141410e+01
1.000199282142e+01
1.000197545308e+01
1.000195926759e+01
1.000194422876e+01
1.000193030252e+01
1.000191745811e+01
1.000190566883e+01
1.000189490947e+01
1.000188515738e+01
1.000187639308e+01
1.000186859832e+01
1.000186175707e+01
1.000185585586e+01
1.000185088255e+01
1.000184682696e+01
1.000184368117e+01
1.000184143868e+01
1.000184009499e+01
1.000183964739e+01
1.000240495820e+01
1.000240535803e+01
1.000240372756e+01
1.000240155574e+01
1.000239820610e+01
1.000239328455e+01
1.000238626788e+01
1.000237658615e+01
1.000236375170e+01
1.000234749324e+01
1.000232780551e+01
1.000230498022e+01
1.000227960509e+01
1.000225244366e+01
1.000222434324e+01
1.000219608711e+01
1.000216828900e+01
1.000214136265e+01
1.000211554988e+01
1.000209096851e+01
1.000206766325e+01
1.000204564092e+01
1.000202488530e+01
1.000200537011e+01
1.000198706636e+01
1.000196994194e+01
1.000195396520e+01
1.000193910713e+01
1.000192533888e+01
1.000191263352e+01
1.000190096718e+01
1.000189031674e+01
1.000188066111e+01
1.000187198194e+01
1.000186426186e+01
1.000185748548e+01
1.000185163978e+01
1.000184671298e+01
1.000184269517e+01
1.000183957859e+01
1.000183735688e+01
1.000183602562e+01
1.000183558217e+01
1.000240012512e+01
1.000240089512e+01
1.000239780196e+01
1.000239387978e+01
1.000238825270e+01
1.000238073858e+01
1.000237109954e+01
1.000235907346e+01
1.000234444519e+01
1.000232713098e+01
1.000230720125e+01
1.000228490875e+01
1.000226069631e+01
1.000223510557e+01
1.000220873694e+01
1.000218216207e+01
1.000215586076e+01
1.000213019437e+01
1.000210541062e+01
1.000208166055e+01
1.000205902793e+01
1.000203755431e+01
1.000201725158e+01
1.000199811513e+01
1.000198013228e+01
1.000196328317e+01
1.000194754530e+01
1.000193289640e+01
1.000191931269e+01
1.000190677102e+01
1.000189525033e+01
1.000188472961e+01
1.000187518935e+01
1.000186661236e+01
1.000185898217e+01
1.000185228403e+01
1.000184650543e+01
1.000184163492e+01
1.000183766288e+01
1.000183458172e+01
1.000183238523e+01
1.000183106907e+01
1.000183063065e+01
1.000239683485e+01
1.000239796733e+01
1.000239345588e+01
1.000238788071e+01
1.000238015846e+01
1.000237031099e+01
1.000235833532e+01
1.000234420062e+01
1.000232788830e+01
1.000230945038e+01
1.000228901360e+01
1.000226680742e+01
1.000224318074e+01
1.000221853264e+01
1.000219330347e+01
1.000216792002e+01
1.000214275597e+01
1.000211811251e+01
1.000209421585e+01
1.000207122053e+01
1.000204922571e+01
1.000202829165e+01
1.000200844802e+01
1.000198970544e+01
1.000197206358e+01
1.000195551237e+01
1.000194003687e+01
1.000192562065e+01
1.000191224438e+01
1.000189988831e+01
1.000188853393e+01
1.000187816220e+01
1.000186875507e+01
1.000186029646e+01
1.000185277073e+01
1.000184616374e+01
1.000184046345e+01
1.000183565877e+01
1.000183174030e+01
1.000182870066e+01
1.000182653374e+01
1.000182523530e+01
1.000182480277e+01
1.000239580177e+01
1.000239732126e+01
1.000239130748e+01
1.000238401847e+01
1.000237417179e+01
1.000236200544e+01
1.000234773440e+01
1.000233151976e+01
1.000231349340e+01
1.000229380621e+01
1.000227262383e+01
1.000225015866e+01
1.000222669484e+01
1.000220253392e+01
1.000217800555e+01
1.000215343182e+01
1.000212910218e+01
1.000210526045e+01
1.000208210088e+01
1.000205976567e+01
1.000203835391e+01
1.000201793209e+01
1.000199853854e+01
1.000198019274e+01
1.000196290238e+01
1.000194666419e+01
1.000193146889e+01
1.000191730451e+01
1.000190415526e+01
1.000189200419e+01
1.000188083491e+01
1.000187063000e+01
1.000186137270e+01
1.000185304786e+01
1.000184564055e+01
1.000183913719e+01
1.000183352612e+01
1.000182879655e+01
1.000182493930e+01
1.000182194713e+01
1.000181981405e+01
1.000181853589e+01
1.000181811011e+01
1.000239778352e+01
1.000239976431e+01
1.000239197600e+01
1.000238271315e+01
1.000237048608e+01
1.000235579090e+01
1.000233906744e+01
1.000232064675e+01
1.000230077686e+01
1.000227967594e+01
1.000225752950e+01
1.000223453023e+01
1.000221091084e+01
1.000218689942e+01
1.000216274301e+01
1.000213868356e+01
1.000211494198e+01
1.000209171012e+01
1.000206914730e+01
1.000204737556e+01
1.000202648459e+01
1.000200653835e+01
1.000198757670e+01
1.000196962246e+01
1.000195268723e+01
1.000193677165e+01
1.000192186991e+01
1.000190797302e+01
1.000189506767e+01
1.000188313889e+01
1.000187217186e+01
1.000186215040e+01
1.000185305868e+01
1.000184488229e+01
1.000183760685e+01
1.000183121918e+01
1.000182570794e+01
1.000182106255e+01
1.000181727400e+01
1.000181433517e+01
1.000181224014e+01
1.000181098478e+01
1.000181056660e+01
1.000240367585e+01
1.000240627298e+01
1.000239614350e+01
1.000238436973e+01
1.000236923363e+01
1.000235157240e+01
1.000233206930e+01
1.000231120139e+01
1.000228929357e+01
1.000226659569e+01
1.000224328890e+01
1.000221953580e+01
1.000219552006e+01
1.000217140735e+01
1.000214737748e+01
1.000212360705e+01
1.000210025926e+01
1.000207747925e+01
1.000205539164e+01
1.000203409480e+01
1.000201366376e+01
1.000199415436e+01
1.000197560274e+01
1.000195803069e+01
1.000194145027e+01
1.000192586335e+01
1.000191126557e+01
1.000189764940e+01
1.000188500286e+01
1.000187331212e+01
1.000186256329e+01
1.000185274095e+01
1.000184382988e+01
1.000183581609e+01
1.000182868556e+01
1.000182242537e+01
1.000181702435e+01
1.000181247206e+01
1.000180875959e+01
1.000180587988e+01
1.000180382704e+01
1.000180259700e+01
1.000180218726e+01
1.000241466091e+01
1.000241818302e+01
1.000240461736e+01
1.000238935950e+01
1.000237043092e+01
1.000234913082e+01
1.000232638588e+01
1.000230275896e+01
1.000227859191e+01
1.000225411972e+01
1.000222948819e+01
1.000220481339e+01
1.000218022521e+01
1.000215583023e+01
1.000213174881e+01
1.000210810102e+01
1.000208499971e+01
1.000206254783e+01
1.000204083673e+01
1.000201994006e+01
1.000199991551e+01
1.000198080736e+01
1.000196264453e+01
1.000194544461e+01
1.000192921736e+01
1.000191396362e+01
1.000189967872e+01
1.000188635515e+01
1.000187398119e+01
1.000186254332e+01
1.000185202791e+01
1.000184241981e+01
1.000183370399e+01
1.000182586663e+01
1.000181889381e+01
1.000181277271e+01
1.000180749217e+01
1.000180304181e+01
1.000179941275e+01
1.000179659789e+01
1.000179459139e+01
1.000179338915e+01
1.000179298867e+01
1.000243248496e+01
1.000243755081e+01
1.000241834949e+01
1.000239790378e+01
1.000237382915e+01
1.000234802929e+01
1.000232151544e+01
1.000229481021e+01
1.000226818289e+01
1.000224179537e+01
1.000221572222e+01
1.000219001330e+01
1.000216473672e+01
1.000213993935e+01
1.000211568590e+01
1.000209204546e+01
1.000206908571e+01
1.000204687129e+01
1.000202546226e+01
1.000200490783e+01
1.000198524730e+01
1.000196651156e+01
1.000194872017e+01
1.000193188432e+01
1.000191600944e+01
1.000190109360e+01
1.000188713035e+01
1.000187411099e+01
1.000186202307e+01
1.000185085257e+01
1.000184058553e+01
1.000183120656e+01
1.000182270046e+01
1.000181505322e+01
1.000180825084e+01
1.000180228036e+01
1.000179713055e+01
1.000179279093e+01
1.000178925257e+01
1.000178650832e+01
1.000178455228e+01
1.000178338032e+01
1.000178298995e+01
1.000245983087e+01
1.000246827564e+01
1.000243839946e+01
1.000240955226e+01
1.000237869374e+01
1.000234750973e+01
1.000231676172e+01
1.000228673680e+01
1.000225752387e+01
1.000222915000e+01
1.000220158374e+01
1.000217479058e+01
1.000214876915e+01
1.000212350540e+01
1.000209901095e+01
1.000207530799e+01
1.000205242336e+01
1.000203038689e+01
1.000200922969e+01
1.000198897762e+01
1.000196965163e+01
1.000195126854e+01
1.000193383739e+01
1.000191736159e+01
1.000190184095e+01
1.000188726946e+01
1.000187363771e+01
1.000186093486e+01
1.000184914688e+01
1.000183825860e+01
1.000182825511e+01
1.000181912036e+01
1.000181083857e+01
1.000180339531e+01
1.000179677618e+01
1.000179096797e+01
1.000178595920e+01
1.000178173921e+01
1.000177829891e+01
1.000177563105e+01
1.000177372963e+01
1.000177259048e+01
1.000177221104e+01
1.000250345583e+01
1.000251712574e+01
1.000246299085e+01
1.000242265051e+01
1.000238360314e+01
1.000234644432e+01
1.000231122878e+01
1.000227781802e+01
1.000224602598e+01
1.000221569649e+01
1.000218666744e+01
1.000215880865e+01
1.000213204569e+01
1.000210630452e+01
1.000208154691e+01
1.000205775242e+01
1.000203491129e+01
1.000201302208e+01
1.000199208965e+01
1.000197211817e+01
1.000195311104e+01
1.000193507112e+01
1.000191799652e+01
1.000190188228e+01
1.000188672169e+01
1.000187250383e+01
1.000185921553e+01
1.000184684303e+01
1.000183537006e+01
1.000182477971e+01
1.000181505567e+01
1.000180618076e+01
1.000179813835e+01
1.000179091324e+01
1.000178449049e+01
1.000177885643e+01
1.000177399920e+01
1.000176990786e+01
1.000176657311e+01
1.000176398752e+01
1.000176214495e+01
1.000176104115e+01
1.000176067350e+01
1.000254861544e+01
1.000264494773e+01
1.000248742653e+01
1.000243402999e+01
1.000238650587e+01
1.000234340434e+01
1.000230388024e+01
1.000226727419e+01
1.000223308420e+01
1.000220095334e+01
1.000217058340e+01
1.000214174902e+01
1.000211430615e+01
1.000208812574e+01
1.000206312513e+01
1.000203924658e+01
1.000201644842e+01
1.000199470193e+01
1.000197398873e+01
1.000195429343e+01
1.000193560323e+01
1.000191790769e+01
1.000190119424e+01
1.000188544932e+01
1.000187065938e+01
1.000185680809e+01
1.000184387799e+01
1.000183185185e+01
1.000182071066e+01
1.000181043530e+01
1.000180100766e+01
1.000179240910e+01
1.000178462180e+01
1.000177762961e+01
1.000177141680e+01
1.000176596911e+01
1.000176127419e+01
1.000175732076e+01
1.000175409920e+01
1.000175160187e+01
1.000174982248e+01
1.000174875662e+01
1.000174840163e+01
1.000258374539e+01
1.000268511116e+01
1.000250405262e+01
1.000243992591e+01
1.000238508126e+01
1.000233686808e+01
1.000229366119e+01
1.000225434107e+01
1.000221812267e+01
1.000218447194e+01
1.000215297318e+01
1.000212332061e+01
1.000209531244e+01
1.000206877452e+01
1.000204358794e+01
1.000201966437e+01
1.000199693581e+01
1.000197535063e+01
1.000195487057e+01
1.000193546316e+01
1.000191710110e+01
1.000189976176e+01
1.000188342248e+01
1.000186806137e+01
1.000185365804e+01
1.000184019051e+01
1.000182763673e+01
1.000181597567e+01
1.000180518522e+01
1.000179524371e+01
1.000178613087e+01
1.000177782633e+01
1.000177031086e+01
1.000176356709e+01
1.000175757840e+01
1.000175232977e+01
1.000174780831e+01
1.000174400229e+01
1.000174090181e+01
1.000173849891e+01
1.000173678712e+01
1.000173576189e+01
1.000173542046e+01
1.000259374044e+01
1.000269805671e+01
1.000250793287e+01
1.000243707365e+01
1.000237729873e+01
1.000232549817e+01
1.000227965611e+01
1.000223836340e+01
1.000220065162e+01
1.000216587172e+01
1.000213353191e+01
1.000210327419e+01
1.000207485865e+01
1.000204808043e+01
1.000202279502e+01
1.000199889164e+01
1.000197628211e+01
1.000195489666e+01
1.000193468068e+01
1.000191558731e+01
1.000189757668e+01
1.000188061537e+01
1.000186467153e+01
1.000184971551e+01
1.000183572028e+01
1.000182265827e+01
1.000181050271e+01
1.000179922854e+01
1.000178881032e+01
1.000177922358e+01
1.000177044570e+01
1.000176245432e+01
1.000175522854e+01
1.000174874965e+01
1.000174299995e+01
1.000173796364e+01
1.000173362719e+01
1.000172997846e+01
1.000172700717e+01
1.000172470509e+01
1.000172306551e+01
1.000172208368e+01
1.000172175672e+01
1.000258454258e+01
1.000268960450e+01
1.000249679081e+01
1.000242366604e+01
1.000236183464e+01
1.000230839466e+01
1.000226123700e+01
1.000221888334e+01
1.000218032058e+01
1.000214487269e+01
1.000211202877e+01
1.000208141574e+01
1.000205278032e+01
1.000202590417e+01
1.000200062934e+01
1.000197683139e+01
1.000195440849e+01
1.000193327746e+01
1.000191337093e+01
1.000189463027e+01
1.000187700508e+01
1.000186045270e+01
1.000184493328e+01
1.000183041016e+01
1.000181685007e+01
1.000180422003e+01
1.000179248849e+01
1.000178162630e+01
1.000177160456e+01
1.000176239586e+01
1.000175397503e+01
1.000174631755e+01
1.000173940069e+01
1.000173320418e+01
1.000172770914e+01
1.000172289895e+01
1.000171875951e+01
1.000171527824e+01
1.000171244457e+01
1.000171024993e+01
1.000170868732e+01
1.000170775177e+01
1.000170744026e+01
1.000255733470e+01
1.000266185539e+01
1.000247093836e+01
1.000239917502e+01
1.000233827780e+01
1.000228524362e+01
1.000223815809e+01
1.000219569529e+01
1.000215694873e+01
1.000212131137e+01
1.000208831452e+01
1.000205760935e+01
1.000202895477e+01
1.000200213653e+01
1.000197699538e+01
1.000195340188e+01
1.000193124673e+01
1.000191043775e+01
1.000189089793e+01
1.000187255919e+01
1.000185536264e+01
1.000183925807e+01
1.000182419901e+01
1.000181014277e+01
1.000179705035e+01
1.000178488347e+01
1.000177360585e+01
1.000176318418e+01
1.000175358608e+01
1.000174478118e+01
1.000173674168e+01
1.000172944074e+01
1.000172285356e+01
1.000171695809e+01
1.000171173422e+01
1.000170716452e+01
1.000170323444e+01
1.000169993117e+01
1.000169724384e+01
1.000169516355e+01
1.000169368294e+01
1.000169279672e+01
1.000169250167e+01
1.000251133273e+01
1.000261313444e+01
1.000243038793e+01
1.000236434855e+01
1.000230714609e+01
1.000225636136e+01
1.000221058273e+01
1.000216886055e+01
1.000213053236e+01
1.000209514456e+01
1.000206232367e+01
1.000203177861e+01
1.000200330236e+01
1.000197669974e+01
1.000195182073e+01
1.000192853852e+01
1.000190674157e+01
1.000188633227e+01
1.000186722604e+01
1.000184934711e+01
1.000183262980e+01
1.000181701839e+01
1.000180246167e+01
1.000178891203e+01
1.000177632517e+01
1.000176465747e+01
1.000175386781e+01
1.000174391867e+01
1.000173477431e+01
1.000172640154e+01
1.000171876998e+01
1.000171185036e+01
1.000170561539e+01
1.000170004102e+01
1.000169510560e+01
1.000169079109e+01
1.000168708295e+01
1.000168396844e+01
1.000168143656e+01
1.000167947798e+01
1.000167808470e+01
1.000167725100e+01
1.000167697348e+01
1.000244104822e+01
1.000253811021e+01
1.000237777460e+01
1.000232122424e+01
1.000226986154e+01
1.000222263169e+01
1.000217903564e+01
1.000213867427e+01
1.000210122322e+01
1.000206643576e+01
1.000203406614e+01
1.000200390208e+01
1.000197578418e+01
1.000194954665e+01
1.000192505630e+01
1.000190219459e+01
1.000188085238e+01
1.000186092834e+01
1.000184233104e+01
1.000182497665e+01
1.000180879423e+01
1.000179372574e+01
1.000177971815e+01
1.000176672028e+01
1.000175468239e+01
1.000174355484e+01
1.000173329127e+01
1.000172384999e+01
1.000171519216e+01
1.000170728225e+01
1.000170008771e+01
1.000169357667e+01
1.000168771890e+01
1.000168248691e+01
1.000167785780e+01
1.000167381319e+01
1.000167033924e+01
1.000166742429e+01
1.000166505756e+01
1.000166322861e+01
1.000166192851e+01
1.000166115078e+01
1.000166089188e+01
1.000236215409e+01
1.000237696630e+01
1.000231845474e+01
1.000227330094e+01
1.000222851515e+01
1.000218531959e+01
1.000214427173e+01
1.000210557946e+01
1.000206927256e+01
1.000203531777e+01
1.000200360236e+01
1.000197399517e+01
1.000194638921e+01
1.000192065030e+01
1.000189666716e+01
1.000187433348e+01
1.000185354617e+01
1.000183420164e+01
1.000181619764e+01
1.000179943806e+01
1.000178384752e+01
1.000176937228e+01
1.000175596398e+01
1.000174356964e+01
1.000173213048e+01
1.000172158943e+01
1.000171189417e+01
1.000170299908e+01
1.000169486283e+01
1.000168744834e+01
1.000168072234e+01
1.000167465073e+01
1.000166919819e+01
1.000166433317e+01
1.000166002766e+01
1.000165626571e+01
1.000165303693e+01
1.000165033244e+01
1.000164814125e+01
1.000164645233e+01
1.000164525194e+01
1.000164453295e+01
1.000164429300e+01
1.000228700185e+01
1.000229722951e+01
1.000226060426e+01
1.000222456070e+01
1.000218540431e+01
1.000214577218e+01
1.000210709634e+01
1.000207005752e+01
1.000203496523e+01
1.000200195324e+01
1.000197101749e+01
1.000194209828e+01
1.000191512359e+01
1.000189000032e+01
1.000186662683e+01
1.000184492923e+01
1.000182478950e+01
1.000180613662e+01
1.000178882821e+01
1.000177274074e+01
1.000175778726e+01
1.000174394424e+01
1.000173119589e+01
1.000171946507e+01
1.000170868261e+01
1.000169877990e+01
1.000168969905e+01
1.000168139084e+01
1.000167381268e+01
1.000166692716e+01
1.000166070118e+01
1.000165510575e+01
1.000165009561e+01
1.000164561980e+01
1.000164165586e+01
1.000163818606e+01
1.000163521224e+01
1.000163272520e+01
1.000163072558e+01
1.000162918734e+01
1.000162809634e+01
1.000162743492e+01
1.000162721585e+01
1.000223154335e+01
1.000223948502e+01
1.000220955584e+01
1.000217828677e+01
1.000214236363e+01
1.000210507771e+01
1.000206816320e+01
1.000203252260e+01
1.000199855658e+01
1.000196649595e+01
1.000193639248e+01
1.000190826194e+01
1.000188202549e+01
1.000185756375e+01
1.000183496261e+01
1.000181389847e+01
1.000179462149e+01