# vtk DataFile Version 3.0
Unstructured Grid from OpenGeoSys
ASCII
DATASET UNSTRUCTURED_GRID
FIELD TimesAndCycles 2
TIME 1 1 double
6.643884750301e+01
CYLCE 1 1 long
30
POINTS 1849 double
0.000000000000e+00 1.400000000000e-01 0.000000000000e+00
0.000000000000e+00 1.366670000000e-01 0.000000000000e+00
3.333330000000e-03 1.366670000000e-01 0.000000000000e+00
3.333330000000e-03 1.400000000000e-01 0.000000000000e+00
0.000000000000e+00 1.333330000000e-01 0.000000000000e+00
3.333330000000e-03 1.333330000000e-01 0.000000000000e+00
0.000000000000e+00 1.300000000000e-01 0.000000000000e+00
3.333330000000e-03 1.300000000000e-01 0.000000000000e+00
0.000000000000e+00 1.266670000000e-01 0.000000000000e+00
3.333330000000e-03 1.266670000000e-01 0.000000000000e+00
0.000000000000e+00 1.233330000000e-01 0.000000000000e+00
3.333330000000e-03 1.233330000000e-01 0.000000000000e+00
0.000000000000e+00 1.200000000000e-01 0.000000000000e+00
3.333330000000e-03 1.200000000000e-01 0.000000000000e+00
0.000000000000e+00 1.166670000000e-01 0.000000000000e+00
3.333330000000e-03 1.166670000000e-01 0.000000000000e+00
0.000000000000e+00 1.133330000000e-01 0.000000000000e+00
3.333330000000e-03 1.133330000000e-01 0.000000000000e+00
0.000000000000e+00 1.100000000000e-01 0.000000000000e+00
3.333330000000e-03 1.100000000000e-01 0.000000000000e+00
0.000000000000e+00 1.066670000000e-01 0.000000000000e+00
3.333330000000e-03 1.066670000000e-01 0.000000000000e+00
0.000000000000e+00 1.033330000000e-01 0.000000000000e+00
3.333330000000e-03 1.033330000000e-01 0.000000000000e+00
0.000000000000e+00 1.000000000000e-01 0.000000000000e+00
3.333330000000e-03 1.000000000000e-01 0.000000000000e+00
0.000000000000e+00 9.666670000000e-02 0.000000000000e+00
3.333330000000e-03 9.666670000000e-02 0.000000000000e+00
0.000000000000e+00 9.333330000000e-02 0.000000000000e+00
3.333330000000e-03 9.333330000000e-02 0.000000000000e+00
0.000000000000e+00 9.000000000000e-02 0.000000000000e+00
3.333330000000e-03 9.000000000000e-02 0.000000000000e+00
0.000000000000e+00 8.666670000000e-02 0.000000000000e+00
3.333330000000e-03 8.666670000000e-02 0.000000000000e+00
0.000000000000e+00 8.333330000000e-02 0.000000000000e+00
3.333330000000e-03 8.333330000000e-02 0.000000000000e+00
0.000000000000e+00 8.000000000000e-02 0.000000000000e+00
3.333330000000e-03 8.000000000000e-02 0.000000000000e+00
0.000000000000e+00 7.666670000000e-02 0.000000000000e+00
3.333330000000e-03 7.666670000000e-02 0.000000000000e+00
0.000000000000e+00 7.333330000000e-02 0.000000000000e+00
3.333330000000e-03 7.333330000000e-02 0.000000000000e+00
0.000000000000e+00 7.000000000000e-02 0.000000000000e+00
3.333330000000e-03 7.000000000000e-02 0.000000000000e+00
0.000000000000e+00 6.666670000000e-02 0.000000000000e+00
3.333330000000e-03 6.666670000000e-02 0.000000000000e+00
0.000000000000e+00 6.333330000000e-02 0.000000000000e+00
3.333330000000e-03 6.333330000000e-02 0.000000000000e+00
0.000000000000e+00 6.000000000000e-02 0.000000000000e+00
3.333330000000e-03 6.000000000000e-02 0.000000000000e+00
0.000000000000e+00 5.666670000000e-02 0.000000000000e+00
3.333330000000e-03 5.666670000000e-02 0.000000000000e+00
0.000000000000e+00 5.333330000000e-02 0.000000000000e+00
3.333330000000e-03 5.333330000000e-02 0.000000000000e+00
0.000000000000e+00 5.000000000000e-02 0.000000000000e+00
3.333330000000e-03 5.000000000000e-02 0.000000000000e+00
0.000000000000e+00 4.666670000000e-02 0.000000000000e+00
3.333330000000e-03 4.666670000000e-02 0.000000000000e+00
0.000000000000e+00 4.333330000000e-02 0.000000000000e+00
3.333330000000e-03 4.333330000000e-02 0.000000000000e+00
0.000000000000e+00 4.000000000000e-02 0.000000000000e+00
3.333330000000e-03 4.000000000000e-02 0.000000000000e+00
0.000000000000e+00 3.666670000000e-02 0.000000000000e+00
3.333330000000e-03 3.666670000000e-02 0.000000000000e+00
0.000000000000e+00 3.333330000000e-02 0.000000000000e+00
3.333330000000e-03 3.333330000000e-02 0.000000000000e+00
0.000000000000e+00 3.000000000000e-02 0.000000000000e+00
3.333330000000e-03 3.000000000000e-02 0.000000000000e+00
0.000000000000e+00 2.666670000000e-02 0.000000000000e+00
3.333330000000e-03 2.666670000000e-02 0.000000000000e+00
0.000000000000e+00 2.333330000000e-02 0.000000000000e+00
3.333330000000e-03 2.333330000000e-02 0.000000000000e+00
0.000000000000e+00 2.000000000000e-02 0.000000000000e+00
3.333330000000e-03 2.000000000000e-02 0.000000000000e+00
0.000000000000e+00 1.666670000000e-02 0.000000000000e+00
3.333330000000e-03 1.666670000000e-02 0.000000000000e+00
0.000000000000e+00 1.333330000000e-02 0.000000000000e+00
3.333330000000e-03 1.333330000000e-02 0.000000000000e+00
0.000000000000e+00 1.000000000000e-02 0.000000000000e+00
3.333330000000e-03 1.000000000000e-02 0.000000000000e+00
0.000000000000e+00 6.666670000000e-03 0.000000000000e+00
3.333330000000e-03 6.666670000000e-03 0.000000000000e+00
0.000000000000e+00 3.333330000000e-03 0.000000000000e+00
3.333330000000e-03 3.333330000000e-03 0.000000000000e+00
0.000000000000e+00 7.771560000000e-18 0.000000000000e+00
3.333330000000e-03 7.771560000000e-18 0.000000000000e+00
6.666670000000e-03 1.366670000000e-01 0.000000000000e+00
6.666670000000e-03 1.400000000000e-01 0.000000000000e+00
6.666670000000e-03 1.333330000000e-01 0.000000000000e+00
6.666670000000e-03 1.300000000000e-01 0.000000000000e+00
6.666670000000e-03 1.266670000000e-01 0.000000000000e+00
6.666670000000e-03 1.233330000000e-01 0.000000000000e+00
6.666670000000e-03 1.200000000000e-01 0.000000000000e+00
6.666670000000e-03 1.166670000000e-01 0.000000000000e+00
6.666670000000e-03 1.133330000000e-01 0.000000000000e+00
6.666670000000e-03 1.100000000000e-01 0.000000000000e+00
6.666670000000e-03 1.066670000000e-01 0.000000000000e+00
6.666670000000e-03 1.033330000000e-01 0.000000000000e+00
6.666670000000e-03 1.000000000000e-01 0.000000000000e+00
6.666670000000e-03 9.666670000000e-02 0.000000000000e+00
6.666670000000e-03 9.333330000000e-02 0.000000000000e+00
6.666670000000e-03 9.000000000000e-02 0.000000000000e+00
6.666670000000e-03 8.666670000000e-02 0.000000000000e+00
6.666670000000e-03 8.333330000000e-02 0.000000000000e+00
6.666670000000e-03 8.000000000000e-02 0.000000000000e+00
6.666670000000e-03 7.666670000000e-02 0.000000000000e+00
6.666670000000e-03 7.333330000000e-02 0.000000000000e+00
6.666670000000e-03 7.000000000000e-02 0.000000000000e+00
6.666670000000e-03 6.666670000000e-02 0.000000000000e+00
6.666670000000e-03 6.333330000000e-02 0.000000000000e+00
6.666670000000e-03 6.000000000000e-02 0.000000000000e+00
6.666670000000e-03 5.666670000000e-02 0.000000000000e+00
6.666670000000e-03 5.333330000000e-02 0.000000000000e+00
6.666670000000e-03 5.000000000000e-02 0.000000000000e+00
6.666670000000e-03 4.666670000000e-02 0.000000000000e+00
6.666670000000e-03 4.333330000000e-02 0.000000000000e+00
6.666670000000e-03 4.000000000000e-02 0.000000000000e+00
6.666670000000e-03 3.666670000000e-02 0.000000000000e+00
6.666670000000e-03 3.333330000000e-02 0.000000000000e+00
6.666670000000e-03 3.000000000000e-02 0.000000000000e+00
6.666670000000e-03 2.666670000000e-02 0.000000000000e+00
6.666670000000e-03 2.333330000000e-02 0.000000000000e+00
6.666670000000e-03 2.000000000000e-02 0.000000000000e+00
6.666670000000e-03 1.666670000000e-02 0.000000000000e+00
6.666670000000e-03 1.333330000000e-02 0.000000000000e+00
6.666670000000e-03 1.000000000000e-02 0.000000000000e+00
6.666670000000e-03 6.666670000000e-03 0.000000000000e+00
6.666670000000e-03 3.333330000000e-03 0.000000000000e+00
6.666670000000e-03 7.771560000000e-18 0.000000000000e+00
1.000000000000e-02 1.366670000000e-01 0.000000000000e+00
1.000000000000e-02 1.400000000000e-01 0.000000000000e+00
1.000000000000e-02 1.333330000000e-01 0.000000000000e+00
1.000000000000e-02 1.300000000000e-01 0.000000000000e+00
1.000000000000e-02 1.266670000000e-01 0.000000000000e+00
1.000000000000e-02 1.233330000000e-01 0.000000000000e+00
1.000000000000e-02 1.200000000000e-01 0.000000000000e+00
1.000000000000e-02 1.166670000000e-01 0.000000000000e+00
1.000000000000e-02 1.133330000000e-01 0.000000000000e+00
1.000000000000e-02 1.100000000000e-01 0.000000000000e+00
1.000000000000e-02 1.066670000000e-01 0.000000000000e+00
1.000000000000e-02 1.033330000000e-01 0.000000000000e+00
1.000000000000e-02 1.000000000000e-01 0.000000000000e+00
1.000000000000e-02 9.666670000000e-02 0.000000000000e+00
1.000000000000e-02 9.333330000000e-02 0.000000000000e+00
1.000000000000e-02 9.000000000000e-02 0.000000000000e+00
1.000000000000e-02 8.666670000000e-02 0.000000000000e+00
1.000000000000e-02 8.333330000000e-02 0.000000000000e+00
1.000000000000e-02 8.000000000000e-02 0.000000000000e+00
1.000000000000e-02 7.666670000000e-02 0.000000000000e+00
1.000000000000e-02 7.333330000000e-02 0.000000000000e+00
1.000000000000e-02 7.000000000000e-02 0.000000000000e+00
1.000000000000e-02 6.666670000000e-02 0.000000000000e+00
1.000000000000e-02 6.333330000000e-02 0.000000000000e+00
1.000000000000e-02 6.000000000000e-02 0.000000000000e+00
1.000000000000e-02 5.666670000000e-02 0.000000000000e+00
1.000000000000e-02 5.333330000000e-02 0.000000000000e+00
1.000000000000e-02 5.000000000000e-02 0.000000000000e+00
1.000000000000e-02 4.666670000000e-02 0.000000000000e+00
1.000000000000e-02 4.333330000000e-02 0.000000000000e+00
1.000000000000e-02 4.000000000000e-02 0.000000000000e+00
1.000000000000e-02 3.666670000000e-02 0.000000000000e+00
1.000000000000e-02 3.333330000000e-02 0.000000000000e+00
1.000000000000e-02 3.000000000000e-02 0.000000000000e+00
1.000000000000e-02 2.666670000000e-02 0.000000000000e+00
1.000000000000e-02 2.333330000000e-02 0.000000000000e+00
1.000000000000e-02 2.000000000000e-02 0.000000000000e+00
1.000000000000e-02 1.666670000000e-02 0.000000000000e+00
1.000000000000e-02 1.333330000000e-02 0.000000000000e+00
1.000000000000e-02 1.000000000000e-02 0.000000000000e+00
1.000000000000e-02 6.666670000000e-03 0.000000000000e+00
1.000000000000e-02 3.333330000000e-03 0.000000000000e+00
1.000000000000e-02 7.771560000000e-18 0.000000000000e+00
[...]
POINT_DATA 1849
SCALARS HEAD double 1
LOOKUP_TABLE default
1.000242652429e+01
1.000242765754e+01
1.000242649133e+01
1.000242545632e+01
1.000243127978e+01
1.000242978193e+01
1.000243813917e+01
1.000243594562e+01
1.000245002191e+01
1.000244617687e+01
1.000247023477e+01
1.000246378662e+01
1.000252915671e+01
1.000248137236e+01
1.000254348244e+01
1.000249317270e+01
1.000254345625e+01
1.000249165903e+01
1.000253200820e+01
1.000247982857e+01
1.000251017800e+01
1.000245828514e+01
1.000247710406e+01
1.000242660790e+01
1.000243005382e+01
1.000238200299e+01
1.000233892555e+01
1.000233214704e+01
1.000228716123e+01
1.000228294195e+01
1.000224444998e+01
1.000224187045e+01
1.000220750809e+01
1.000220565270e+01
1.000217448277e+01
1.000217304129e+01
1.000214444721e+01
1.000214326091e+01
1.000211684182e+01
1.000211582444e+01
1.000209130453e+01
1.000209040482e+01
1.000206758886e+01
1.000206677461e+01
1.000204551560e+01
1.000204476571e+01
1.000202495121e+01
1.000202425108e+01
1.000200579418e+01
1.000200513386e+01
1.000198796271e+01
1.000198733475e+01
1.000197139024e+01
1.000197078911e+01
1.000195602327e+01
1.000195544485e+01
1.000194181527e+01
1.000194125618e+01
1.000192872664e+01
1.000192818440e+01
1.000191672420e+01
1.000191619666e+01
1.000190577794e+01
1.000190526326e+01
1.000189586184e+01
1.000189535838e+01
1.000188695382e+01
1.000188646021e+01
1.000187903375e+01
1.000187854873e+01
1.000187208417e+01
1.000187160660e+01
1.000186609056e+01
1.000186561930e+01
1.000186104010e+01
1.000186057411e+01
1.000185692199e+01
1.000185646029e+01
1.000185372790e+01
1.000185326954e+01
1.000185145110e+01
1.000185099505e+01
1.000185008690e+01
1.000184963226e+01
1.000184963252e+01
1.000184917833e+01
1.000242319825e+01
1.000242243083e+01
1.000242560421e+01
1.000242993592e+01
1.000243662275e+01
1.000244474260e+01
1.000245195084e+01
1.000245445906e+01
1.000244984539e+01
1.000243702218e+01
1.000241617970e+01
1.000238732512e+01
1.000235176465e+01
1.000231208649e+01
1.000227223533e+01
1.000223466352e+01
1.000220035043e+01
1.000216885187e+01
1.000213977906e+01
1.000211281903e+01
1.000208773557e+01
1.000206435190e+01
1.000204252968e+01
1.000202216075e+01
1.000200315986e+01
1.000198545593e+01
1.000196898970e+01
1.000195371260e+01
1.000193958173e+01
1.000192655990e+01
1.000191461577e+01
1.000190372062e+01
1.000189384937e+01
1.000188498066e+01
1.000187709484e+01
1.000187017487e+01
1.000186420658e+01
1.000185917718e+01
1.000185507620e+01
1.000185189531e+01
1.000184962788e+01
1.000184826928e+01
1.000184781675e+01
1.000241833584e+01
1.000241793853e+01
1.000241954902e+01
1.000242159334e+01
1.000242421190e+01
1.000242659651e+01
1.000242721592e+01
1.000242426404e+01
1.000241618934e+01
1.000240217394e+01
1.000238202153e+01
1.000235614884e+01
1.000232561739e+01
1.000229217286e+01
1.000225780661e+01
1.000222419742e+01
1.000219225291e+01
1.000216227038e+01
1.000213420974e+01
1.000210795462e+01
1.000208338052e+01
1.000206037678e+01
1.000203884659e+01
1.000201870790e+01
1.000199989275e+01
1.000198234182e+01
1.000196600394e+01
1.000195083608e+01
1.000193679932e+01
1.000192385932e+01
1.000191198684e+01
1.000190115468e+01
1.000189133888e+01
1.000188251882e+01
1.000187467551e+01
1.000186779231e+01
1.000186185539e+01
1.000185685228e+01
1.000185277257e+01
1.000184960814e+01
1.000184735241e+01
1.000184600081e+01
1.000184555060e+01
1.000241266756e+01
1.000241267363e+01
1.000241262568e+01
1.000241243063e+01
1.000241176630e+01
1.000241000966e+01
1.000240625069e+01
1.000239945658e+01
1.000238873846e+01
1.000237356384e+01
1.000235383538e+01
1.000232990122e+01
1.000230257032e+01
1.000227296265e+01
1.000224233684e+01
1.000221180121e+01
1.000218213269e+01
1.000215375326e+01
1.000212683608e+01
1.000210141378e+01
1.000207746125e+01
1.000205493309e+01
1.000203377550e+01
1.000201393522e+01
1.000199536413e+01
1.000197801647e+01
1.000196185039e+01
1.000194682996e+01
1.000193292101e+01
1.000192009276e+01
1.000190831850e+01
1.000189757302e+01
1.000188783366e+01
1.000187908087e+01
1.000187129641e+01
1.000186446431e+01
1.000185857101e+01
1.000185360441e+01
1.000184955431e+01
1.000184641283e+01
1.000184417335e+01
1.000184283151e+01
1.000184238455e+01
1.000240701496e+01
1.000240741329e+01
1.000240578881e+01
1.000240362442e+01
1.000240028503e+01
1.000239537643e+01
1.000238837523e+01
1.000237871129e+01
1.000236589671e+01
1.000234966003e+01
1.000232999563e+01
1.000230719497e+01
1.000228184543e+01
1.000225471043e+01
1.000222663692e+01
1.000219840797e+01
1.000217063705e+01
1.000214373774e+01
1.000211795173e+01
1.000209339645e+01
1.000207011675e+01
1.000204811920e+01
1.000202738745e+01
1.000200789522e+01
1.000198961336e+01
1.000197250979e+01
1.000195655272e+01
1.000194171321e+01
1.000192796238e+01
1.000191527326e+01
1.000190362199e+01
1.000189298552e+01
1.000188334264e+01
1.000187467505e+01
1.000186696531e+01
1.000186019806e+01
1.000185436031e+01
1.000184944025e+01
1.000184542797e+01
1.000184231570e+01
1.000184009712e+01
1.000183876772e+01
1.000183832489e+01
1.000240216672e+01
1.000240293511e+01
1.000239984834e+01
1.000239593413e+01
1.000239031791e+01
1.000238281758e+01
1.000237319499e+01
1.000236118783e+01
1.000234658058e+01
1.000232928942e+01
1.000230938438e+01
1.000228711776e+01
1.000226293230e+01
1.000223736925e+01
1.000221102874e+01
1.000218448217e+01
1.000215820917e+01
1.000213257074e+01
1.000210781449e+01
1.000208409126e+01
1.000206148493e+01
1.000204003668e+01
1.000201975832e+01
1.000200064521e+01
1.000198268458e+01
1.000196585658e+01
1.000195013864e+01
1.000193550851e+01
1.000192194237e+01
1.000190941707e+01
1.000189791153e+01
1.000188740482e+01
1.000187787738e+01
1.000186931195e+01
1.000186169215e+01
1.000185500318e+01
1.000184923261e+01
1.000184436887e+01
1.000184040235e+01
1.000183732551e+01
1.000183513216e+01
1.000183381792e+01
1.000183338007e+01
1.000239885807e+01
1.000239998883e+01
1.000239548428e+01
1.000238991754e+01
1.000238220715e+01
1.000237237436e+01
1.000236041646e+01
1.000234630203e+01
1.000233001232e+01
1.000231159885e+01
1.000229118827e+01
1.000226900975e+01
1.000224541164e+01
1.000222079278e+01
1.000219559319e+01
1.000217023945e+01
1.000214510490e+01
1.000212049055e+01
1.000209662243e+01
1.000207365485e+01
1.000205168713e+01
1.000203077906e+01
1.000201096047e+01
1.000199224157e+01
1.000197462233e+01
1.000195809252e+01
1.000194263719e+01
1.000192823991e+01
1.000191488139e+01
1.000190254181e+01
1.000189120269e+01
1.000188084504e+01
1.000187145074e+01
1.000186300373e+01
1.000185548837e+01
1.000184889069e+01
1.000184319845e+01
1.000183840056e+01
1.000183448766e+01
1.000183145231e+01
1.000182928854e+01
1.000182799201e+01
1.000182756012e+01
1.000239780324e+01
1.000239932073e+01
1.000239331451e+01
1.000238603481e+01
1.000237620091e+01
1.000236405061e+01
1.000234979863e+01
1.000233360594e+01
1.000231560400e+01
1.000229594317e+01
1.000227478894e+01
1.000225235328e+01
1.000222891994e+01
1.000220479011e+01
1.000218029312e+01
1.000215575073e+01
1.000213145208e+01
1.000210764080e+01
1.000208451090e+01
1.000206220464e+01
1.000204082078e+01
1.000202042572e+01
1.000200105767e+01
1.000198273621e+01
1.000196546879e+01
1.000194925235e+01
1.000193407747e+01
1.000191993221e+01
1.000190680084e+01
1.000189466637e+01
1.000188351243e+01
1.000187332168e+01
1.000186407726e+01
1.000185576404e+01
1.000184836719e+01
1.000184187314e+01
1.000183627014e+01
1.000183154743e+01
1.000182769577e+01
1.000182470794e+01
1.000182257799e+01
1.000182130173e+01
1.000182087656e+01
1.000239975957e+01
1.000240173833e+01
1.000239395817e+01
1.000238470548e+01
1.000237249236e+01
1.000235781475e+01
1.000234111222e+01
1.000232271526e+01
1.000230287185e+01
1.000228179965e+01
1.000225968370e+01
1.000223671621e+01
1.000221312955e+01
1.000218915139e+01
1.000216502842e+01
1.000214100218e+01
1.000211729334e+01
1.000209409352e+01
1.000207156190e+01
1.000204982014e+01
1.000202895809e+01
1.000200903934e+01
1.000199010392e+01
1.000197217445e+01
1.000195526269e+01
1.000193936914e+01
1.000192448806e+01
1.000191061046e+01
1.000189772307e+01
1.000188581095e+01
1.000187485937e+01
1.000186485206e+01
1.000185577328e+01
1.000184760863e+01
1.000184034370e+01
1.000183396537e+01
1.000182846223e+01
1.000182382369e+01
1.000182004081e+01
1.000181710633e+01
1.000181501449e+01
1.000181376104e+01
1.000181334346e+01
1.000240562248e+01
1.000240821740e+01
1.000239809686e+01
1.000238633423e+01
1.000237121353e+01
1.000235357164e+01
1.000233409143e+01
1.000231324965e+01
1.000229137085e+01
1.000226870432e+01
1.000224543073e+01
1.000222171221e+01
1.000219773186e+01
1.000217365495e+01
1.000214966095e+01
1.000212592588e+01
1.000210261285e+01
1.000207986664e+01
1.000205781164e+01
1.000203654617e+01
1.000201614501e+01
1.000199666417e+01
1.000197813946e+01
1.000196059276e+01
1.000194403616e+01
1.000192847157e+01
1.000191389464e+01
1.000190029791e+01
1.000188766938e+01
1.000187599536e+01
1.000186526193e+01
1.000185545385e+01
1.000184655570e+01
1.000183855377e+01
1.000183143383e+01
1.000182518303e+01
1.000181979012e+01
1.000181524476e+01
1.000181153799e+01
1.000180866268e+01
1.000180661306e+01
1.000180538485e+01
1.000180497576e+01
1.000241657361e+01
1.000242009322e+01
1.000240653750e+01
1.000239129199e+01
1.000237238040e+01
1.000235110172e+01
1.000232838218e+01
1.000230478422e+01
1.000228064921e+01
1.000225621151e+01
1.000223161634e+01
1.000220697935e+01
1.000218242972e+01
1.000215807351e+01
1.000213403063e+01
1.000211042078e+01
1.000208735641e+01
1.000206494028e+01
1.000204326348e+01
1.000202239962e+01
1.000200240622e+01
1.000198332746e+01
1.000196519231e+01
1.000194801830e+01
1.000193181525e+01
1.000191658405e+01
1.000190232014e+01
1.000188901604e+01
1.000187666014e+01
1.000186523900e+01
1.000185473900e+01
1.000184514514e+01
1.000183644233e+01
1.000182861683e+01
1.000182165472e+01
1.000181554303e+01
1.000181027071e+01
1.000180582734e+01
1.000180220402e+01
1.000179939357e+01
1.000179739024e+01
1.000179618990e+01
1.000179579008e+01
1.000243435875e+01
1.000243942186e+01
1.000242023158e+01
1.000239979961e+01
1.000237574393e+01
1.000234996787e+01
1.000232348235e+01
1.000229680944e+01
1.000227021770e+01
1.000224386842e+01
1.000221783540e+01
1.000219216811e+01
1.000216693373e+01
1.000214217855e+01
1.000211796681e+01
1.000209436708e+01
1.000207144676e+01
1.000204927018e+01
1.000202789739e+01
1.000200737731e+01
1.000198774921e+01
1.000196904381e+01
1.000195128081e+01
1.000193447138e+01
1.000191862103e+01
1.000190372791e+01
1.000188978566e+01
1.000187678577e+01
1.000186471582e+01
1.000185356195e+01
1.000184331034e+01
1.000183394552e+01
1.000182545249e+01
1.000181781715e+01
1.000181102558e+01
1.000180506454e+01
1.000179992309e+01
1.000179559056e+01
1.000179205793e+01
1.000178931814e+01
1.000178736533e+01
1.000178619526e+01
1.000178580558e+01
1.000246166018e+01
1.000247010170e+01
1.000244023807e+01
1.000241140622e+01
1.000238056894e+01
1.000234941169e+01
1.000231869541e+01
1.000228870668e+01
1.000225953356e+01
1.000223120237e+01
1.000220368085e+01
1.000217693368e+01
1.000215095867e+01
1.000212574109e+01
1.000210129187e+01
1.000207763283e+01
1.000205479041e+01
1.000203279420e+01
1.000201167508e+01
1.000199145900e+01
1.000197216667e+01
1.000195381484e+01
1.000193641282e+01
1.000191996394e+01
1.000190446808e+01
1.000188991930e+01
1.000187630847e+01
1.000186362494e+01
1.000185185476e+01
1.000184098299e+01
1.000183099479e+01
1.000182187411e+01
1.000181360539e+01
1.000180617404e+01
1.000179956580e+01
1.000179376723e+01
1.000178876692e+01
1.000178455409e+01
1.000178111977e+01
1.000177845637e+01
1.000177655815e+01
1.000177542087e+01
1.000177504210e+01
1.000250523442e+01
1.000251890138e+01
1.000246477978e+01
1.000242445671e+01
1.000238543325e+01
1.000234830460e+01
1.000231312487e+01
1.000227975488e+01
1.000224800770e+01
1.000221772617e+01
1.000218874722e+01
1.000216093967e+01
1.000213422808e+01
1.000210853756e+01
1.000208382928e+01
1.000206008226e+01
1.000203728633e+01
1.000201543986e+01
1.000199454762e+01
1.000197461371e+01
1.000195564150e+01
1.000193763390e+01
1.000192058899e+01
1.000190450200e+01
1.000188936639e+01
1.000187517107e+01
1.000186190330e+01
1.000184954991e+01
1.000183809447e+01
1.000182752036e+01
1.000181781136e+01
1.000180895044e+01
1.000180092102e+01
1.000179370801e+01
1.000178729618e+01
1.000178167195e+01
1.000177682329e+01
1.000177273935e+01
1.000176941047e+01
1.000176682949e+01
1.000176499020e+01
1.000176388826e+01
1.000176352125e+01
1.000255033678e+01
1.000264666493e+01
1.000248915866e+01
1.000243578176e+01
1.000238828462e+01
1.000234521726e+01
1.000230573377e+01
1.000226917393e+01
1.000223503481e+01
1.000220295824e+01
1.000217264475e+01
1.000214386775e+01
1.000211648201e+01
1.000209035754e+01
1.000206541092e+01
1.000204158375e+01
1.000201883400e+01
1.000199713278e+01
1.000197646189e+01
1.000195680590e+01
1.000193815180e+01
1.000192048943e+01
1.000190380622e+01
1.000188808874e+01
1.000187332368e+01
1.000185949466e+01
1.000184658475e+01
1.000183457700e+01
1.000182345284e+01
1.000181319328e+01
1.000180378034e+01
1.000179519568e+01
1.000178742147e+01
1.000178044147e+01
1.000177423983e+01
1.000176880215e+01
1.000176411597e+01
1.000176017002e+01
1.000175695452e+01
1.000175446185e+01
1.000175268568e+01
1.000175162174e+01
1.000175126736e+01
1.000258540098e+01
1.000268676202e+01
1.000250572010e+01
1.000244161559e+01
1.000238680147e+01
1.000233862710e+01
1.000229546647e+01
1.000225619910e+01
1.000222003875e+01
1.000218644986e+01
1.000215501518e+01
1.000212542739e+01
1.000209748315e+01
1.000207100735e+01
1.000204587989e+01
1.000202201190e+01
1.000199933511e+01
1.000197779788e+01
1.000195736214e+01
1.000193799548e+01
1.000191967075e+01
1.000190236543e+01
1.000188605686e+01
1.000187072324e+01
1.000185634438e+01
1.000184289867e+01
1.000183036414e+01
1.000181872056e+01
1.000180794628e+01
1.000179801984e+01
1.000178892138e+01
1.000178063057e+01
1.000177312826e+01
1.000176639706e+01
1.000176041987e+01
1.000175518156e+01
1.000175066917e+01
1.000174687080e+01
1.000174377647e+01
1.000174137820e+01
1.000173966963e+01
1.000173864628e+01
1.000173830547e+01
1.000259532075e+01
1.000269963191e+01
1.000250952678e+01
1.000243869248e+01
1.000237895215e+01
1.000232719575e+01
1.000228140657e+01
1.000224017440e+01
1.000220252931e+01
1.000216782040e+01
1.000213555393e+01
1.000210536992e+01
1.000207702651e+01
1.000205031735e+01
1.000202509686e+01
1.000200125349e+01
1.000197869907e+01
1.000195736398e+01
1.000193719411e+01
1.000191814292e+01
1.000190017077e+01
1.000188324428e+01
1.000186733158e+01
1.000185240295e+01
1.000183843151e+01
1.000182539015e+01
1.000181325256e+01
1.000180199448e+01
1.000179159112e+01
1.000178201855e+01
1.000177325443e+01
1.000176527680e+01
1.000175806442e+01
1.000175159847e+01
1.000174586091e+01
1.000174083550e+01
1.000173650852e+01
1.000173286766e+01
1.000172990260e+01
1.000172760511e+01
1.000172596863e+01
1.000172498859e+01
1.000172466222e+01
1.000258603746e+01
1.000269109366e+01
1.000249830089e+01
1.000242520405e+01
1.000236341169e+01
1.000231002192e+01
1.000226292489e+01
1.000222064104e+01
1.000218215546e+01
1.000214678979e+01
1.000211403059e+01
1.000208350203e+01
1.000205494845e+01
1.000202814958e+01
1.000200294603e+01
1.000197921274e+01
1.000195684792e+01
1.000193576922e+01
1.000191591012e+01
1.000189721279e+01
1.000187962719e+01
1.000186311062e+01
1.000184762276e+01
1.000183312681e+01
1.000181958939e+01
1.000180697819e+01
1.000179526272e+01
1.000178441444e+01
1.000177440573e+01
1.000176520997e+01
1.000175680229e+01
1.000174915850e+01
1.000174225550e+01
1.000173607269e+01
1.000173059066e+01
1.000172579224e+01
1.000172166292e+01
1.000171818988e+01
1.000171536239e+01
1.000171317221e+01
1.000171161238e+01
1.000171067839e+01
1.000171036735e+01
1.000255873267e+01
1.000266324717e+01
1.000247235319e+01
1.000240062074e+01
1.000233976722e+01
1.000228679002e+01
1.000223977402e+01
1.000219739225e+01
1.000215873578e+01
1.000212319454e+01
1.000209029628e+01
1.000205968899e+01
1.000203112817e+01
1.000200439669e+01
1.000197933392e+01
1.000195580950e+01
1.000193371465e+01
1.000191295874e+01
1.000189346672e+01
1.000187517210e+01
1.000185801666e+01
1.000184194932e+01
1.000182692270e+01
1.000181289324e+01
1.000179982192e+01
1.000178767123e+01
1.000177640628e+01
1.000176599533e+01
1.000175640764e+01
1.000174761395e+01
1.000173958702e+01
1.000173229992e+01
1.000172572750e+01
1.000171984706e+01
1.000171463757e+01
1.000171008096e+01
1.000170616189e+01
1.000170286719e+01
1.000170018600e+01
1.000169810956e+01
1.000169663118e+01
1.000169574603e+01
1.000169545130e+01
1.000251262143e+01
1.000261441636e+01
1.000243169468e+01
1.000236568885e+01
1.000230853456e+01
1.000225781368e+01
1.000221211510e+01
1.000217048721e+01
1.000213226519e+01
1.000209699091e+01
1.000206428673e+01
1.000203385548e+01
1.000200548721e+01
1.000197898359e+01
1.000195419074e+01
1.000193098156e+01
1.000190924522e+01
1.000188888751e+01
1.000186982772e+01
1.000185199332e+01
1.000183531886e+01
1.000181974753e+01
1.000180522522e+01
1.000179170235e+01
1.000177913414e+01
1.000176747840e+01
1.000175669631e+01
1.000174675307e+01
1.000173761526e+01
1.000172925143e+01
1.000172163179e+01
1.000171472681e+01
1.000170850825e+01
1.000170295080e+01
1.000169803218e+01
1.000169373277e+01
1.000169003700e+01
1.000168693148e+01
1.000168440514e+01
1.000168244943e+01
1.000168105707e+01
1.000168022371e+01
1.000167994629e+01
1.000244221397e+01
1.000253926901e+01
1.000237895947e+01
1.000232244433e+01
1.000227113291e+01
1.000222397428e+01
1.000218046877e+01
1.000214021928e+01
1.000210289503e+01
1.000206824375e+01
1.000203601114e+01
1.000200598386e+01
1.000197799286e+01
1.000195186678e+01
1.000192747194e+01
1.000190468572e+01
1.000188340166e+01
1.000186352296e+01
1.000184496708e+01
1.000182765638e+01
1.000181152212e+01
1.000179649984e+01
1.000178253068e+01
1.000176955890e+01
1.000175753560e+01
1.000174641325e+01
1.000173614954e+01
1.000172670663e+01
1.000171804976e+01
1.000171014580e+01
1.000170296325e+01
1.000169646859e+01
1.000169062989e+01
1.000168541829e+01
1.000168080897e+01
1.000167678269e+01
1.000167332345e+01
1.000167041820e+01
1.000166805572e+01
1.000166622705e+01
1.000166492589e+01
1.000166414713e+01
1.000166388776e+01
1.000236318263e+01
1.000237798885e+01
1.000231950381e+01
1.000227438408e+01
1.000222965058e+01
1.000218652745e+01
1.000214558609e+01
1.000210702389e+01
1.000207087280e+01
1.000203708299e+01
1.000200553827e+01
1.000197608784e+01
1.000194863002e+01
1.000192302563e+01
1.000189914857e+01
1.000187689439e+01
1.000185615413e+01
1.000183683903e+01
1.000181886185e+01
1.000180214527e+01
1.000178661389e+01
1.000177220036e+01
1.000175883915e+01
1.000174647037e+01
1.000173503852e+01
1.000172449213e+01
1.000171478430e+01
1.000170587614e+01
1.000169773134e+01
1.000169031965e+01
1.000168360647e+01
1.000167755644e+01
1.000167212705e+01
1.000166728558e+01
1.000166300499e+01
1.000165926687e+01
1.000165605712e+01
1.000165336273e+01
1.000165117323e+01
1.000164947884e+01
1.000164827317e+01
1.000164755154e+01
1.000164731158e+01
1.000228788057e+01
1.000229809935e+01
1.000226150116e+01
1.000222549172e+01
1.000218637844e+01
1.000214682294e+01
1.000210825039e+01
1.000207138449e+01
1.000203648144e+01
1.000200367671e+01
1.000197293353e+01
1.000194420661e+01
1.000191741278e+01
1.000189244980e+01
1.000186920546e+01
1.000184757748e+01
1.000182748361e+01
1.000180881387e+01
1.000179149553e+01
1.000177544447e+01
1.000176057650e+01
1.000174683762e+01
1.000173414413e+01
1.000172243805e+01
1.000171165050e+01
1.000170172613e+01
1.000169261642e+01
1.000168427719e+01
1.000167667906e+01
1.000166978526e+01
1.000166358668e+01
1.000165802048e+01
1.000165304246e+01
1.000164859080e+01
1.000164465849e+01
1.000164122336e+01
1.000163827670e+01
1.000163580489e+01
1.000163379456e+01
1.000163224355e+01
1.000163113810e+01
1.000163047577e+01
1.000163025351e+01
1.000223226534e+01
1.000224020686e+01
1.000221031296e+01
1.000217905357e+01
1.000214317412e+01
1.000210592508e+01
1.000206913084e+01
1.000203367646e+01
1.000200006965e+01
1.000196824647e+01
1.000193833195e+01
1.000191051025e+01
1.000188451623e+01
1.000186017313e+01
1.000183766948e+01
1.000181678969e+01
1.000179740491e+01