# vtk DataFile Version 3.0
Unstructured Grid from OpenGeoSys
ASCII
DATASET UNSTRUCTURED_GRID
FIELD TimesAndCycles 2
TIME 1 1 double
6.643884750301e+01
CYLCE 1 1 long
30
POINTS 1849 double
0.000000000000e+00 1.400000000000e-01 0.000000000000e+00
0.000000000000e+00 1.366670000000e-01 0.000000000000e+00
3.333330000000e-03 1.366670000000e-01 0.000000000000e+00
3.333330000000e-03 1.400000000000e-01 0.000000000000e+00
0.000000000000e+00 1.333330000000e-01 0.000000000000e+00
3.333330000000e-03 1.333330000000e-01 0.000000000000e+00
0.000000000000e+00 1.300000000000e-01 0.000000000000e+00
3.333330000000e-03 1.300000000000e-01 0.000000000000e+00
0.000000000000e+00 1.266670000000e-01 0.000000000000e+00
3.333330000000e-03 1.266670000000e-01 0.000000000000e+00
0.000000000000e+00 1.233330000000e-01 0.000000000000e+00
3.333330000000e-03 1.233330000000e-01 0.000000000000e+00
0.000000000000e+00 1.200000000000e-01 0.000000000000e+00
3.333330000000e-03 1.200000000000e-01 0.000000000000e+00
0.000000000000e+00 1.166670000000e-01 0.000000000000e+00
3.333330000000e-03 1.166670000000e-01 0.000000000000e+00
0.000000000000e+00 1.133330000000e-01 0.000000000000e+00
3.333330000000e-03 1.133330000000e-01 0.000000000000e+00
0.000000000000e+00 1.100000000000e-01 0.000000000000e+00
3.333330000000e-03 1.100000000000e-01 0.000000000000e+00
0.000000000000e+00 1.066670000000e-01 0.000000000000e+00
3.333330000000e-03 1.066670000000e-01 0.000000000000e+00
0.000000000000e+00 1.033330000000e-01 0.000000000000e+00
3.333330000000e-03 1.033330000000e-01 0.000000000000e+00
0.000000000000e+00 1.000000000000e-01 0.000000000000e+00
3.333330000000e-03 1.000000000000e-01 0.000000000000e+00
0.000000000000e+00 9.666670000000e-02 0.000000000000e+00
3.333330000000e-03 9.666670000000e-02 0.000000000000e+00
0.000000000000e+00 9.333330000000e-02 0.000000000000e+00
3.333330000000e-03 9.333330000000e-02 0.000000000000e+00
0.000000000000e+00 9.000000000000e-02 0.000000000000e+00
3.333330000000e-03 9.000000000000e-02 0.000000000000e+00
0.000000000000e+00 8.666670000000e-02 0.000000000000e+00
3.333330000000e-03 8.666670000000e-02 0.000000000000e+00
0.000000000000e+00 8.333330000000e-02 0.000000000000e+00
3.333330000000e-03 8.333330000000e-02 0.000000000000e+00
0.000000000000e+00 8.000000000000e-02 0.000000000000e+00
3.333330000000e-03 8.000000000000e-02 0.000000000000e+00
0.000000000000e+00 7.666670000000e-02 0.000000000000e+00
3.333330000000e-03 7.666670000000e-02 0.000000000000e+00
0.000000000000e+00 7.333330000000e-02 0.000000000000e+00
3.333330000000e-03 7.333330000000e-02 0.000000000000e+00
0.000000000000e+00 7.000000000000e-02 0.000000000000e+00
3.333330000000e-03 7.000000000000e-02 0.000000000000e+00
0.000000000000e+00 6.666670000000e-02 0.000000000000e+00
3.333330000000e-03 6.666670000000e-02 0.000000000000e+00
0.000000000000e+00 6.333330000000e-02 0.000000000000e+00
3.333330000000e-03 6.333330000000e-02 0.000000000000e+00
0.000000000000e+00 6.000000000000e-02 0.000000000000e+00
3.333330000000e-03 6.000000000000e-02 0.000000000000e+00
0.000000000000e+00 5.666670000000e-02 0.000000000000e+00
3.333330000000e-03 5.666670000000e-02 0.000000000000e+00
0.000000000000e+00 5.333330000000e-02 0.000000000000e+00
3.333330000000e-03 5.333330000000e-02 0.000000000000e+00
0.000000000000e+00 5.000000000000e-02 0.000000000000e+00
3.333330000000e-03 5.000000000000e-02 0.000000000000e+00
0.000000000000e+00 4.666670000000e-02 0.000000000000e+00
3.333330000000e-03 4.666670000000e-02 0.000000000000e+00
0.000000000000e+00 4.333330000000e-02 0.000000000000e+00
3.333330000000e-03 4.333330000000e-02 0.000000000000e+00
0.000000000000e+00 4.000000000000e-02 0.000000000000e+00
3.333330000000e-03 4.000000000000e-02 0.000000000000e+00
0.000000000000e+00 3.666670000000e-02 0.000000000000e+00
3.333330000000e-03 3.666670000000e-02 0.000000000000e+00
0.000000000000e+00 3.333330000000e-02 0.000000000000e+00
3.333330000000e-03 3.333330000000e-02 0.000000000000e+00
0.000000000000e+00 3.000000000000e-02 0.000000000000e+00
3.333330000000e-03 3.000000000000e-02 0.000000000000e+00
0.000000000000e+00 2.666670000000e-02 0.000000000000e+00
3.333330000000e-03 2.666670000000e-02 0.000000000000e+00
0.000000000000e+00 2.333330000000e-02 0.000000000000e+00
3.333330000000e-03 2.333330000000e-02 0.000000000000e+00
0.000000000000e+00 2.000000000000e-02 0.000000000000e+00
3.333330000000e-03 2.000000000000e-02 0.000000000000e+00
0.000000000000e+00 1.666670000000e-02 0.000000000000e+00
3.333330000000e-03 1.666670000000e-02 0.000000000000e+00
0.000000000000e+00 1.333330000000e-02 0.000000000000e+00
3.333330000000e-03 1.333330000000e-02 0.000000000000e+00
0.000000000000e+00 1.000000000000e-02 0.000000000000e+00
3.333330000000e-03 1.000000000000e-02 0.000000000000e+00
0.000000000000e+00 6.666670000000e-03 0.000000000000e+00
3.333330000000e-03 6.666670000000e-03 0.000000000000e+00
0.000000000000e+00 3.333330000000e-03 0.000000000000e+00
3.333330000000e-03 3.333330000000e-03 0.000000000000e+00
0.000000000000e+00 7.771560000000e-18 0.000000000000e+00
3.333330000000e-03 7.771560000000e-18 0.000000000000e+00
6.666670000000e-03 1.366670000000e-01 0.000000000000e+00
6.666670000000e-03 1.400000000000e-01 0.000000000000e+00
6.666670000000e-03 1.333330000000e-01 0.000000000000e+00
6.666670000000e-03 1.300000000000e-01 0.000000000000e+00
6.666670000000e-03 1.266670000000e-01 0.000000000000e+00
6.666670000000e-03 1.233330000000e-01 0.000000000000e+00
6.666670000000e-03 1.200000000000e-01 0.000000000000e+00
6.666670000000e-03 1.166670000000e-01 0.000000000000e+00
6.666670000000e-03 1.133330000000e-01 0.000000000000e+00
6.666670000000e-03 1.100000000000e-01 0.000000000000e+00
6.666670000000e-03 1.066670000000e-01 0.000000000000e+00
6.666670000000e-03 1.033330000000e-01 0.000000000000e+00
6.666670000000e-03 1.000000000000e-01 0.000000000000e+00
6.666670000000e-03 9.666670000000e-02 0.000000000000e+00
6.666670000000e-03 9.333330000000e-02 0.000000000000e+00
6.666670000000e-03 9.000000000000e-02 0.000000000000e+00
6.666670000000e-03 8.666670000000e-02 0.000000000000e+00
6.666670000000e-03 8.333330000000e-02 0.000000000000e+00
6.666670000000e-03 8.000000000000e-02 0.000000000000e+00
6.666670000000e-03 7.666670000000e-02 0.000000000000e+00
6.666670000000e-03 7.333330000000e-02 0.000000000000e+00
6.666670000000e-03 7.000000000000e-02 0.000000000000e+00
6.666670000000e-03 6.666670000000e-02 0.000000000000e+00
6.666670000000e-03 6.333330000000e-02 0.000000000000e+00
6.666670000000e-03 6.000000000000e-02 0.000000000000e+00
6.666670000000e-03 5.666670000000e-02 0.000000000000e+00
6.666670000000e-03 5.333330000000e-02 0.000000000000e+00
6.666670000000e-03 5.000000000000e-02 0.000000000000e+00
6.666670000000e-03 4.666670000000e-02 0.000000000000e+00
6.666670000000e-03 4.333330000000e-02 0.000000000000e+00
6.666670000000e-03 4.000000000000e-02 0.000000000000e+00
6.666670000000e-03 3.666670000000e-02 0.000000000000e+00
6.666670000000e-03 3.333330000000e-02 0.000000000000e+00
6.666670000000e-03 3.000000000000e-02 0.000000000000e+00
6.666670000000e-03 2.666670000000e-02 0.000000000000e+00
6.666670000000e-03 2.333330000000e-02 0.000000000000e+00
6.666670000000e-03 2.000000000000e-02 0.000000000000e+00
6.666670000000e-03 1.666670000000e-02 0.000000000000e+00
6.666670000000e-03 1.333330000000e-02 0.000000000000e+00
6.666670000000e-03 1.000000000000e-02 0.000000000000e+00
6.666670000000e-03 6.666670000000e-03 0.000000000000e+00
6.666670000000e-03 3.333330000000e-03 0.000000000000e+00
6.666670000000e-03 7.771560000000e-18 0.000000000000e+00
1.000000000000e-02 1.366670000000e-01 0.000000000000e+00
1.000000000000e-02 1.400000000000e-01 0.000000000000e+00
1.000000000000e-02 1.333330000000e-01 0.000000000000e+00
1.000000000000e-02 1.300000000000e-01 0.000000000000e+00
1.000000000000e-02 1.266670000000e-01 0.000000000000e+00
1.000000000000e-02 1.233330000000e-01 0.000000000000e+00
1.000000000000e-02 1.200000000000e-01 0.000000000000e+00
1.000000000000e-02 1.166670000000e-01 0.000000000000e+00
1.000000000000e-02 1.133330000000e-01 0.000000000000e+00
1.000000000000e-02 1.100000000000e-01 0.000000000000e+00
1.000000000000e-02 1.066670000000e-01 0.000000000000e+00
1.000000000000e-02 1.033330000000e-01 0.000000000000e+00
1.000000000000e-02 1.000000000000e-01 0.000000000000e+00
1.000000000000e-02 9.666670000000e-02 0.000000000000e+00
1.000000000000e-02 9.333330000000e-02 0.000000000000e+00
1.000000000000e-02 9.000000000000e-02 0.000000000000e+00
1.000000000000e-02 8.666670000000e-02 0.000000000000e+00
1.000000000000e-02 8.333330000000e-02 0.000000000000e+00
1.000000000000e-02 8.000000000000e-02 0.000000000000e+00
1.000000000000e-02 7.666670000000e-02 0.000000000000e+00
1.000000000000e-02 7.333330000000e-02 0.000000000000e+00
1.000000000000e-02 7.000000000000e-02 0.000000000000e+00
1.000000000000e-02 6.666670000000e-02 0.000000000000e+00
1.000000000000e-02 6.333330000000e-02 0.000000000000e+00
1.000000000000e-02 6.000000000000e-02 0.000000000000e+00
1.000000000000e-02 5.666670000000e-02 0.000000000000e+00
1.000000000000e-02 5.333330000000e-02 0.000000000000e+00
1.000000000000e-02 5.000000000000e-02 0.000000000000e+00
1.000000000000e-02 4.666670000000e-02 0.000000000000e+00
1.000000000000e-02 4.333330000000e-02 0.000000000000e+00
1.000000000000e-02 4.000000000000e-02 0.000000000000e+00
1.000000000000e-02 3.666670000000e-02 0.000000000000e+00
1.000000000000e-02 3.333330000000e-02 0.000000000000e+00
1.000000000000e-02 3.000000000000e-02 0.000000000000e+00
1.000000000000e-02 2.666670000000e-02 0.000000000000e+00
1.000000000000e-02 2.333330000000e-02 0.000000000000e+00
1.000000000000e-02 2.000000000000e-02 0.000000000000e+00
1.000000000000e-02 1.666670000000e-02 0.000000000000e+00
1.000000000000e-02 1.333330000000e-02 0.000000000000e+00
1.000000000000e-02 1.000000000000e-02 0.000000000000e+00
1.000000000000e-02 6.666670000000e-03 0.000000000000e+00
1.000000000000e-02 3.333330000000e-03 0.000000000000e+00
1.000000000000e-02 7.771560000000e-18 0.000000000000e+00
[...]
POINT_DATA 1849
SCALARS HEAD double 1
LOOKUP_TABLE default
1.000242567964e+01
1.000242681173e+01
1.000242564667e+01
1.000242461284e+01
1.000243043051e+01
1.000242893377e+01
1.000243728420e+01
1.000243509174e+01
1.000244915909e+01
1.000244531509e+01
1.000246936204e+01
1.000246291487e+01
1.000252827219e+01
1.000248048872e+01
1.000254258435e+01
1.000249227541e+01
1.000254254302e+01
1.000249074650e+01
1.000253107846e+01
1.000247889942e+01
1.000250923056e+01
1.000245733818e+01
1.000247613793e+01
1.000242564215e+01
1.000242906823e+01
1.000238101769e+01
1.000233791992e+01
1.000233114161e+01
1.000228613513e+01
1.000228191595e+01
1.000224340320e+01
1.000224082371e+01
1.000220644059e+01
1.000220458515e+01
1.000217339466e+01
1.000217195306e+01
1.000214333872e+01
1.000214215226e+01
1.000211571317e+01
1.000211469557e+01
1.000209015617e+01
1.000208925622e+01
1.000206642130e+01
1.000206560680e+01
1.000204432950e+01
1.000204357929e+01
1.000202374711e+01
1.000202304676e+01
1.000200457282e+01
1.000200391216e+01
1.000198672475e+01
1.000198609641e+01
1.000197013650e+01
1.000196953502e+01
1.000195475449e+01
1.000195417569e+01
1.000194053224e+01
1.000193997286e+01
1.000192743011e+01
1.000192688753e+01
1.000191541498e+01
1.000191488704e+01
1.000190445694e+01
1.000190394181e+01
1.000189452989e+01
1.000189402601e+01
1.000188561184e+01
1.000188511780e+01
1.000187768269e+01
1.000187719723e+01
1.000187072502e+01
1.000187024697e+01
1.000186472438e+01
1.000186425265e+01
1.000185966786e+01
1.000185920141e+01
1.000185554480e+01
1.000185508262e+01
1.000185234686e+01
1.000185188798e+01
1.000185006728e+01
1.000184961074e+01
1.000184870140e+01
1.000184824627e+01
1.000184824642e+01
1.000184779175e+01
1.000242235710e+01
1.000242159085e+01
1.000242475949e+01
1.000242908530e+01
1.000243576409e+01
1.000244387376e+01
1.000245106987e+01
1.000245356417e+01
1.000244893495e+01
1.000243609481e+01
1.000241523421e+01
1.000238636054e+01
1.000235078022e+01
1.000231108167e+01
1.000227120968e+01
1.000223361685e+01
1.000219928277e+01
1.000216776331e+01
1.000213866989e+01
1.000211168955e+01
1.000208658625e+01
1.000206318320e+01
1.000204134236e+01
1.000202095541e+01
1.000200193723e+01
1.000198421667e+01
1.000196773461e+01
1.000195244246e+01
1.000193829726e+01
1.000192526188e+01
1.000191330499e+01
1.000190239798e+01
1.000189251574e+01
1.000188363693e+01
1.000187574201e+01
1.000186881392e+01
1.000186283850e+01
1.000185780305e+01
1.000185369705e+01
1.000185051229e+01
1.000184824207e+01
1.000184688179e+01
1.000184642867e+01
1.000241750054e+01
1.000241710446e+01
1.000241871009e+01
1.000242074829e+01
1.000242335849e+01
1.000242573257e+01
1.000242633941e+01
1.000242337313e+01
1.000241528240e+01
1.000240124953e+01
1.000238107845e+01
1.000235518618e+01
1.000232463439e+01
1.000229116895e+01
1.000225678146e+01
1.000222315089e+01
1.000219118504e+01
1.000216118134e+01
1.000213309980e+01
1.000210682416e+01
1.000208222997e+01
1.000205920681e+01
1.000203765782e+01
1.000201750098e+01
1.000199866849e+01
1.000198110090e+01
1.000196474709e+01
1.000194956412e+01
1.000193551298e+01
1.000192255941e+01
1.000191067414e+01
1.000189983007e+01
1.000189000318e+01
1.000188117298e+01
1.000187332049e+01
1.000186642912e+01
1.000186048503e+01
1.000185547578e+01
1.000185139101e+01
1.000184822264e+01
1.000184596408e+01
1.000184461077e+01
1.000184415997e+01
1.000241184063e+01
1.000241184801e+01
1.000241179486e+01
1.000241159347e+01
1.000241092035e+01
1.000240915267e+01
1.000240538051e+01
1.000239857133e+01
1.000238783643e+01
1.000237264358e+01
1.000235289575e+01
1.000232894120e+01
1.000230158926e+01
1.000227196002e+01
1.000224131236e+01
1.000221075480e+01
1.000218106445e+01
1.000215266347e+01
1.000212572496e+01
1.000210028183e+01
1.000207630903e+01
1.000205376127e+01
1.000203258470e+01
1.000201272618e+01
1.000199413758e+01
1.000197677306e+01
1.000196059108e+01
1.000194555545e+01
1.000193163206e+01
1.000191879017e+01
1.000190700308e+01
1.000189624559e+01
1.000188649508e+01
1.000187773208e+01
1.000186993837e+01
1.000186309796e+01
1.000185719740e+01
1.000185222457e+01
1.000184816935e+01
1.000184502381e+01
1.000184278149e+01
1.000184143789e+01
1.000184099032e+01
1.000240619902e+01
1.000240659874e+01
1.000240496876e+01
1.000240279756e+01
1.000239944882e+01
1.000239452845e+01
1.000238751328e+01
1.000237783338e+01
1.000236500111e+01
1.000234874518e+01
1.000232906036e+01
1.000230623833e+01
1.000228086682e+01
1.000225370935e+01
1.000222561318e+01
1.000219736156e+01
1.000216956818e+01
1.000214264672e+01
1.000211683893e+01
1.000209226257e+01
1.000206896230e+01
1.000204694486e+01
1.000202619397e+01
1.000200668331e+01
1.000198838381e+01
1.000197126334e+01
1.000195529023e+01
1.000194043543e+01
1.000192667007e+01
1.000191396725e+01
1.000190230308e+01
1.000189165447e+01
1.000188200035e+01
1.000187332241e+01
1.000186560330e+01
1.000185882766e+01
1.000185298253e+01
1.000184805613e+01
1.000184403861e+01
1.000184092223e+01
1.000183870064e+01
1.000183736945e+01
1.000183692602e+01
1.000240136455e+01
1.000240213444e+01
1.000239904173e+01
1.000239512012e+01
1.000238949387e+01
1.000238198087e+01
1.000237234327e+01
1.000236031897e+01
1.000234569285e+01
1.000232838118e+01
1.000230845440e+01
1.000228616525e+01
1.000226195655e+01
1.000223636993e+01
1.000221000575e+01
1.000218343564e+01
1.000215713932e+01
1.000213147811e+01
1.000210669965e+01
1.000208295490e+01
1.000206032758e+01
1.000203885914e+01
1.000201856143e+01
1.000199942974e+01
1.000198145137e+01
1.000196460639e+01
1.000194887228e+01
1.000193422674e+01
1.000192064597e+01
1.000190810684e+01
1.000189658829e+01
1.000188606933e+01
1.000187653050e+01
1.000186795463e+01
1.000186032530e+01
1.000185362778e+01
1.000184784962e+01
1.000184297942e+01
1.000183900757e+01
1.000183592654e+01
1.000183373011e+01
1.000183241398e+01
1.000183197557e+01
1.000239807269e+01
1.000239920507e+01
1.000239469400e+01
1.000238911933e+01
1.000238139782e+01
1.000237155137e+01
1.000235957705e+01
1.000234544406e+01
1.000232913384e+01
1.000231069846e+01
1.000229026466e+01
1.000226806193e+01
1.000224443913e+01
1.000221979535e+01
1.000219457089e+01
1.000216919249e+01
1.000214403376e+01
1.000211939584e+01
1.000209550485e+01
1.000207251524e+01
1.000205052610e+01
1.000202959759e+01
1.000200975931e+01
1.000199102181e+01
1.000197338469e+01
1.000195683782e+01
1.000194136624e+01
1.000192695347e+01
1.000191358019e+01
1.000190122665e+01
1.000188987437e+01
1.000187950432e+01
1.000187009849e+01
1.000186164086e+01
1.000185411584e+01
1.000184750933e+01
1.000184180934e+01
1.000183700481e+01
1.000183308642e+01
1.000183004680e+01
1.000182787987e+01
1.000182658140e+01
1.000182614887e+01
1.000239703784e+01
1.000239855726e+01
1.000239254376e+01
1.000238525516e+01
1.000237540910e+01
1.000236324362e+01
1.000234897380e+01
1.000233276074e+01
1.000231473642e+01
1.000229505173e+01
1.000227387238e+01
1.000225141075e+01
1.000222795099e+01
1.000220379463e+01
1.000217927126e+01
1.000215470293e+01
1.000213037902e+01
1.000210654327e+01
1.000208338983e+01
1.000206106080e+01
1.000203965520e+01
1.000201923937e+01
1.000199985160e+01
1.000198151125e+01
1.000196422594e+01
1.000194799235e+01
1.000193280115e+01
1.000191864033e+01
1.000190549412e+01
1.000189334556e+01
1.000188217829e+01
1.000187197494e+01
1.000186271879e+01
1.000185439474e+01
1.000184698794e+01
1.000184048486e+01
1.000183487389e+01
1.000183014430e+01
1.000182628697e+01
1.000182329470e+01
1.000182116151e+01
1.000181988327e+01
1.000181945748e+01
1.000239901768e+01
1.000240099843e+01
1.000239321030e+01
1.000238394771e+01
1.000237172108e+01
1.000235702659e+01
1.000234030416e+01
1.000232188489e+01
1.000230201690e+01
1.000228091844e+01
1.000225877504e+01
1.000223577942e+01
1.000221216428e+01
1.000218815769e+01
1.000216400665e+01
1.000213995302e+01
1.000211621766e+01
1.000209299230e+01
1.000207043618e+01
1.000204867120e+01
1.000202778693e+01
1.000200784725e+01
1.000198889188e+01
1.000197094354e+01
1.000195401374e+01
1.000193810305e+01
1.000192320562e+01
1.000190931242e+01
1.000189641014e+01
1.000188448383e+01
1.000187351869e+01
1.000186349861e+01
1.000185440783e+01
1.000184623200e+01
1.000183895681e+01
1.000183256917e+01
1.000182705778e+01
1.000182241215e+01
1.000181862333e+01
1.000181568423e+01
1.000181358897e+01
1.000181233347e+01
1.000181191525e+01
1.000240490805e+01
1.000240750518e+01
1.000239737572e+01
1.000238560202e+01
1.000237046612e+01
1.000235280531e+01
1.000233330296e+01
1.000231243624e+01
1.000229053014e+01
1.000226783462e+01
1.000224453087e+01
1.000222078152e+01
1.000219677025e+01
1.000217266270e+01
1.000214863861e+01
1.000212487452e+01
1.000210153352e+01
1.000207876065e+01
1.000205668040e+01
1.000203539101e+01
1.000201496737e+01
1.000199546519e+01
1.000197692045e+01
1.000195935484e+01
1.000194278031e+01
1.000192719862e+01
1.000191260539e+01
1.000189899303e+01
1.000188634958e+01
1.000187466122e+01
1.000186391412e+01
1.000185409294e+01
1.000184518252e+01
1.000183716897e+01
1.000183003837e+01
1.000182377788e+01
1.000181837641e+01
1.000181382360e+01
1.000181011062e+01
1.000180723044e+01
1.000180517724e+01
1.000180394696e+01
1.000180353714e+01
1.000241589117e+01
1.000241941333e+01
1.000240584748e+01
1.000239058944e+01
1.000237166073e+01
1.000235036067e+01
1.000232761609e+01
1.000230399002e+01
1.000227982443e+01
1.000225535443e+01
1.000223072592e+01
1.000220605498e+01
1.000218147152e+01
1.000215708207e+01
1.000213300693e+01
1.000210936608e+01
1.000208627225e+01
1.000206382827e+01
1.000204212533e+01
1.000202123694e+01
1.000200122062e+01
1.000198212047e+01
1.000196396526e+01
1.000194677243e+01
1.000193055159e+01
1.000191530349e+01
1.000190102340e+01
1.000188770377e+01
1.000187533289e+01
1.000186389727e+01
1.000185338336e+01
1.000184377609e+01
1.000183506056e+01
1.000182722304e+01
1.000182024973e+01
1.000181412791e+01
1.000180884655e+01
1.000180439533e+01
1.000180076545e+01
1.000179794989e+01
1.000179594285e+01
1.000179474027e+01
1.000179433968e+01
1.000243371341e+01
1.000243877938e+01
1.000241957760e+01
1.000239913137e+01
1.000237505616e+01
1.000234925581e+01
1.000232274180e+01
1.000229603692e+01
1.000226941069e+01
1.000224302512e+01
1.000221695491e+01
1.000219124996e+01
1.000216597838e+01
1.000214118698e+01
1.000211694041e+01
1.000209330762e+01
1.000207035617e+01
1.000204815054e+01
1.000202675063e+01
1.000200620547e+01
1.000198655415e+01
1.000196782737e+01
1.000195004449e+01
1.000193321649e+01
1.000191734866e+01
1.000190243894e+01
1.000188848079e+01
1.000187546548e+01
1.000186338058e+01
1.000185221213e+01
1.000184194626e+01
1.000183256771e+01
1.000182406140e+01
1.000181641349e+01
1.000180961010e+01
1.000180363840e+01
1.000179848729e+01
1.000179414640e+01
1.000179060686e+01
1.000178786162e+01
1.000178590483e+01
1.000178473241e+01
1.000178434188e+01
1.000246105779e+01
1.000246950276e+01
1.000243962580e+01
1.000241077764e+01
1.000237991791e+01
1.000234873269e+01
1.000231798376e+01
1.000228795851e+01
1.000225874612e+01
1.000223037387e+01
1.000220281044e+01
1.000217602136e+01
1.000215000526e+01
1.000212474802e+01
1.000210026113e+01
1.000207656666e+01
1.000205369130e+01
1.000203166467e+01
1.000201051773e+01
1.000199027610e+01
1.000197096052e+01
1.000195258754e+01
1.000193516595e+01
1.000191869895e+01
1.000190318612e+01
1.000188862129e+01
1.000187499497e+01
1.000186229627e+01
1.000185051120e+01
1.000183962466e+01
1.000182962190e+01
1.000182048699e+01
1.000181220438e+01
1.000180475977e+01
1.000179813898e+01
1.000179232893e+01
1.000178731829e+01
1.000178309652e+01
1.000177965462e+01
1.000177698542e+01
1.000177508300e+01
1.000177394322e+01
1.000177356358e+01
1.000250468163e+01
1.000251835162e+01
1.000246421594e+01
1.000242387403e+01
1.000238482455e+01
1.000234766347e+01
1.000231244597e+01
1.000227903394e+01
1.000224724170e+01
1.000221691336e+01
1.000218788697e+01
1.000216003240e+01
1.000213327517e+01
1.000210754114e+01
1.000208279193e+01
1.000205900693e+01
1.000203617617e+01
1.000201429805e+01
1.000199337721e+01
1.000197341758e+01
1.000195442228e+01
1.000193639387e+01
1.000191933016e+01
1.000190322584e+01
1.000188807397e+01
1.000187386341e+01
1.000186058089e+01
1.000184821260e+01
1.000183674234e+01
1.000182615330e+01
1.000181642935e+01
1.000180755355e+01
1.000179950949e+01
1.000179228221e+01
1.000178585698e+01
1.000178022033e+01
1.000177536054e+01
1.000177126681e+01
1.000176792995e+01
1.000176534261e+01
1.000176349874e+01
1.000176239412e+01
1.000176202620e+01
1.000254984122e+01
1.000264617445e+01
1.000248865130e+01
1.000243525228e+01
1.000238772476e+01
1.000234461950e+01
1.000230509196e+01
1.000226848334e+01
1.000223429214e+01
1.000220216180e+01
1.000217179430e+01
1.000214296432e+01
1.000211552770e+01
1.000208935523e+01
1.000206436403e+01
1.000204049611e+01
1.000201770962e+01
1.000199597565e+01
1.000197527559e+01
1.000195559381e+01
1.000193691718e+01
1.000191923488e+01
1.000190253391e+01
1.000188680031e+01
1.000187202019e+01
1.000185817696e+01
1.000184525301e+01
1.000183323109e+01
1.000182209227e+01
1.000181181760e+01
1.000180238921e+01
1.000179378877e+01
1.000178599876e+01
1.000177900334e+01
1.000177278706e+01
1.000176733585e+01
1.000176263757e+01
1.000175868103e+01
1.000175545676e+01
1.000175295720e+01
1.000175117614e+01
1.000175010925e+01
1.000174975391e+01
1.000258497316e+01
1.000268634033e+01
1.000250527858e+01
1.000244114796e+01
1.000238629804e+01
1.000233807904e+01
1.000229486666e+01
1.000225554217e+01
1.000221932120e+01
1.000218567017e+01
1.000215417360e+01
1.000212452571e+01
1.000209652452e+01
1.000206999556e+01
1.000204481960e+01
1.000202090802e+01
1.000199819259e+01
1.000197662154e+01
1.000195615641e+01
1.000193676449e+01
1.000191841811e+01
1.000190109414e+01
1.000188476936e+01
1.000186942132e+01
1.000185502916e+01
1.000184157058e+01
1.000182902336e+01
1.000181736643e+01
1.000180657783e+01
1.000179663611e+01
1.000178752137e+01
1.000177921364e+01
1.000177169409e+01
1.000176494576e+01
1.000175895237e+01
1.000175369915e+01
1.000174917337e+01
1.000174536344e+01
1.000174225955e+01
1.000173985384e+01
1.000173813996e+01
1.000173711342e+01
1.000173677154e+01
1.000259497299e+01
1.000269929111e+01
1.000250916219e+01
1.000243829695e+01
1.000237851407e+01
1.000232670473e+01
1.000228085429e+01
1.000223955473e+01
1.000220183856e+01
1.000216705733e+01
1.000213471950e+01
1.000210446697e+01
1.000207605945e+01
1.000204929155e+01
1.000202401827e+01
1.000200012841e+01
1.000197753360e+01
1.000195616399e+01
1.000193596494e+01
1.000191688939e+01
1.000189889705e+01
1.000188195383e+01
1.000186602708e+01
1.000185108635e+01
1.000183710397e+01
1.000182405195e+01
1.000181190334e+01
1.000180063307e+01
1.000179021593e+01
1.000178062775e+01
1.000177184639e+01
1.000176385004e+01
1.000175661841e+01
1.000175013329e+01
1.000174437742e+01
1.000173933527e+01
1.000173499345e+01
1.000173133989e+01
1.000172836440e+01
1.000172605883e+01
1.000172441661e+01
1.000172343313e+01
1.000172310561e+01
1.000258578352e+01
1.000269084798e+01
1.000249802654e+01
1.000242489268e+01
1.000236304949e+01
1.000230959656e+01
1.000226242649e+01
1.000222006256e+01
1.000218149295e+01
1.000214604247e+01
1.000211320045e+01
1.000208259355e+01
1.000205396775e+01
1.000202710384e+01
1.000200184303e+01
1.000197806031e+01
1.000195565370e+01
1.000193454020e+01
1.000191465271e+01
1.000189593258e+01
1.000187832898e+01
1.000186179826e+01
1.000184629933e+01
1.000183179436e+01
1.000181824921e+01
1.000180563036e+01
1.000179390613e+01
1.000178304743e+01
1.000177302563e+01
1.000176381377e+01
1.000175538730e+01
1.000174772248e+01
1.000174079741e+01
1.000173459257e+01
1.000172908963e+01
1.000172427222e+01
1.000172012628e+01
1.000171663922e+01
1.000171380043e+01
1.000171160148e+01
1.000171003555e+01
1.000170909791e+01
1.000170878568e+01
1.000255858902e+01
1.000266311323e+01
1.000247218470e+01
1.000240040796e+01
1.000233949353e+01
1.000228644051e+01
1.000223933690e+01
1.000219685907e+01
1.000215810239e+01
1.000212246093e+01
1.000208946624e+01
1.000205876887e+01
1.000203012650e+01
1.000200332332e+01
1.000197819865e+01
1.000195462219e+01
1.000193248460e+01
1.000191169442e+01
1.000189217559e+01
1.000187386057e+01
1.000185668991e+01
1.000184061189e+01
1.000182557798e+01
1.000181154364e+01
1.000179846869e+01
1.000178631434e+01
1.000177504427e+01
1.000176462539e+01
1.000175502566e+01
1.000174621524e+01
1.000173816713e+01
1.000173085557e+01
1.000172425701e+01
1.000171835056e+01
1.000171311679e+01
1.000170853849e+01
1.000170460088e+01
1.000170129084e+01
1.000169859737e+01
1.000169651172e+01
1.000169502687e+01
1.000169413792e+01
1.000169384194e+01
1.000251260733e+01
1.000261441391e+01
1.000243165074e+01
1.000236559195e+01
1.000230836469e+01
1.000225755275e+01
1.000221174799e+01
1.000217000412e+01
1.000213166138e+01
1.000209626774e+01
1.000206344991e+01
1.000203291570e+01
1.000200445590e+01
1.000197787271e+01
1.000195301361e+01
1.000192975020e+01
1.000190797115e+01
1.000188758056e+01
1.000186849654e+01
1.000185064497e+01
1.000183395961e+01
1.000181838195e+01
1.000180385701e+01
1.000179033419e+01
1.000177776772e+01
1.000176611380e+01
1.000175533167e+01
1.000174538428e+01
1.000173623625e+01
1.000172785482e+01
1.000172021054e+01
1.000171327564e+01
1.000170702490e+01
1.000170143603e+01
1.000169648856e+01
1.000169216439e+01
1.000168844809e+01
1.000168532601e+01
1.000168278677e+01
1.000168082132e+01
1.000167942247e+01
1.000167858517e+01
1.000167830641e+01
1.000244235275e+01
1.000253942128e+01
1.000237906209e+01
1.000232248407e+01
1.000227108591e+01
1.000222381696e+01
1.000218018316e+01
1.000213979058e+01
1.000210231893e+01
1.000206752371e+01
1.000203515931e+01
1.000200501133e+01
1.000197691703e+01
1.000195070603e+01
1.000192624069e+01
1.000190339959e+01
1.000188207331e+01
1.000186216465e+01
1.000184358825e+01
1.000182626538e+01
1.000181012447e+01
1.000179510133e+01
1.000178113536e+01
1.000176817049e+01
1.000175615577e+01
1.000174504266e+01
1.000173478612e+01
1.000172534525e+01
1.000171668137e+01
1.000170875889e+01
1.000170154591e+01
1.000169501270e+01
1.000168913239e+01
1.000168388138e+01
1.000167923815e+01
1.000167518380e+01
1.000167170226e+01
1.000166877944e+01
1.000166640361e+01
1.000166456547e+01
1.000166325766e+01
1.000166247503e+01
1.000166221449e+01
1.000236350173e+01
1.000237832187e+01
1.000231977853e+01
1.000227458601e+01
1.000222974997e+01
1.000218649799e+01
1.000214539538e+01
1.000210665777e+01
1.000207032191e+01
1.000203635774e+01
1.000200465146e+01
1.000197506959e+01
1.000194749866e+01
1.000192179851e+01
1.000189784901e+01
1.000187553813e+01
1.000185476062e+01
1.000183541987e+01
1.000181742876e+01
1.000180070530e+01
1.000178517371e+01
1.000177076498e+01
1.000175741352e+01
1.000174505825e+01
1.000173364334e+01
1.000172311573e+01
1.000171342624e+01
1.000170453026e+01
1.000169638584e+01
1.000168895467e+01
1.000168220246e+01
1.000167609759e+01
1.000167061165e+01
1.000166571979e+01
1.000166139955e+01
1.000165763133e+01
1.000165439849e+01
1.000165168656e+01
1.000164948356e+01
1.000164777999e+01
1.000164656837e+01
1.000164584348e+01
1.000164560220e+01
1.000228841028e+01
1.000229864831e+01
1.000226198103e+01
1.000222588461e+01
1.000218665717e+01
1.000214694403e+01
1.000210818642e+01
1.000207108143e+01
1.000203594813e+01
1.000200292625e+01
1.000197200789e+01
1.000194312600e+01
1.000191620850e+01
1.000189114171e+01
1.000186782156e+01
1.000184614528e+01
1.000182601230e+01
1.000180732747e+01
1.000179000280e+01
1.000177395386e+01
1.000175910137e+01
1.000174537206e+01
1.000173269573e+01
1.000172100661e+01
1.000171024415e+01
1.000170035092e+01
1.000169127370e+01
1.000168296420e+01
1.000167537736e+01
1.000166847218e+01
1.000166221214e+01
1.000165656381e+01
1.000165149740e+01
1.000164698694e+01
1.000164300916e+01
1.000163954389e+01
1.000163657405e+01
1.000163408493e+01
1.000163206437e+01
1.000163050275e+01
1.000162939255e+01
1.000162872851e+01
1.000162850752e+01
1.000223303596e+01
1.000224098827e+01
1.000221101105e+01
1.000217967088e+01
1.000214364831e+01
1.000210624381e+01
1.000206921237e+01
1.000203346091e+01
1.000199943986e+01
1.000196737359e+01
1.000193731119e+01
1.000190922400e+01
1.000188306535e+01
1.000185873936e+01
1.000183615340e+01
1.000181521184e+01
1.000179581799e+01