# vtk DataFile Version 3.0
Unstructured Grid from OpenGeoSys
ASCII
DATASET UNSTRUCTURED_GRID
FIELD TimesAndCycles 2
TIME 1 1 double
1.000000000000e+04
CYLCE 1 1 long
100
POINTS 101 double
0.000000000000e+00 0.000000000000e+00 0.000000000000e+00
2.000000000000e-05 0.000000000000e+00 0.000000000000e+00
4.000000000000e-05 0.000000000000e+00 0.000000000000e+00
6.000000000000e-05 0.000000000000e+00 0.000000000000e+00
8.000000000000e-05 0.000000000000e+00 0.000000000000e+00
1.000000000000e-04 0.000000000000e+00 0.000000000000e+00
1.200000000000e-04 0.000000000000e+00 0.000000000000e+00
1.400000000000e-04 0.000000000000e+00 0.000000000000e+00
1.600000000000e-04 0.000000000000e+00 0.000000000000e+00
1.800000000000e-04 0.000000000000e+00 0.000000000000e+00
2.000000000000e-04 0.000000000000e+00 0.000000000000e+00
2.200000000000e-04 0.000000000000e+00 0.000000000000e+00
2.400000000000e-04 0.000000000000e+00 0.000000000000e+00
2.600000000000e-04 0.000000000000e+00 0.000000000000e+00
2.800000000000e-04 0.000000000000e+00 0.000000000000e+00
3.000000000000e-04 0.000000000000e+00 0.000000000000e+00
3.200000000000e-04 0.000000000000e+00 0.000000000000e+00
3.400000000000e-04 0.000000000000e+00 0.000000000000e+00
3.600000000000e-04 0.000000000000e+00 0.000000000000e+00
3.800000000000e-04 0.000000000000e+00 0.000000000000e+00
4.000000000000e-04 0.000000000000e+00 0.000000000000e+00
4.200000000000e-04 0.000000000000e+00 0.000000000000e+00
4.400000000000e-04 0.000000000000e+00 0.000000000000e+00
4.600000000000e-04 0.000000000000e+00 0.000000000000e+00
4.800000000000e-04 0.000000000000e+00 0.000000000000e+00
5.000000000000e-04 0.000000000000e+00 0.000000000000e+00
5.200000000000e-04 0.000000000000e+00 0.000000000000e+00
5.400000000000e-04 0.000000000000e+00 0.000000000000e+00
5.600000000000e-04 0.000000000000e+00 0.000000000000e+00
5.800000000000e-04 0.000000000000e+00 0.000000000000e+00
6.000000000000e-04 0.000000000000e+00 0.000000000000e+00
6.200000000000e-04 0.000000000000e+00 0.000000000000e+00
6.400000000000e-04 0.000000000000e+00 0.000000000000e+00
6.600000000000e-04 0.000000000000e+00 0.000000000000e+00
6.800000000000e-04 0.000000000000e+00 0.000000000000e+00
7.000000000000e-04 0.000000000000e+00 0.000000000000e+00
7.200000000000e-04 0.000000000000e+00 0.000000000000e+00
7.400000000000e-04 0.000000000000e+00 0.000000000000e+00
7.600000000000e-04 0.000000000000e+00 0.000000000000e+00
7.800000000000e-04 0.000000000000e+00 0.000000000000e+00
8.000000000000e-04 0.000000000000e+00 0.000000000000e+00
8.200000000000e-04 0.000000000000e+00 0.000000000000e+00
8.400000000000e-04 0.000000000000e+00 0.000000000000e+00
8.600000000000e-04 0.000000000000e+00 0.000000000000e+00
8.800000000000e-04 0.000000000000e+00 0.000000000000e+00
9.000000000000e-04 0.000000000000e+00 0.000000000000e+00
9.200000000000e-04 0.000000000000e+00 0.000000000000e+00
9.400000000000e-04 0.000000000000e+00 0.000000000000e+00
9.600000000000e-04 0.000000000000e+00 0.000000000000e+00
9.800000000000e-04 0.000000000000e+00 0.000000000000e+00
1.000000000000e-03 0.000000000000e+00 0.000000000000e+00
1.020000000000e-03 0.000000000000e+00 0.000000000000e+00
1.040000000000e-03 0.000000000000e+00 0.000000000000e+00
1.060000000000e-03 0.000000000000e+00 0.000000000000e+00
1.080000000000e-03 0.000000000000e+00 0.000000000000e+00
1.100000000000e-03 0.000000000000e+00 0.000000000000e+00
1.120000000000e-03 0.000000000000e+00 0.000000000000e+00
1.140000000000e-03 0.000000000000e+00 0.000000000000e+00
1.160000000000e-03 0.000000000000e+00 0.000000000000e+00
1.180000000000e-03 0.000000000000e+00 0.000000000000e+00
1.200000000000e-03 0.000000000000e+00 0.000000000000e+00
1.220000000000e-03 0.000000000000e+00 0.000000000000e+00
1.240000000000e-03 0.000000000000e+00 0.000000000000e+00
1.260000000000e-03 0.000000000000e+00 0.000000000000e+00
1.280000000000e-03 0.000000000000e+00 0.000000000000e+00
1.300000000000e-03 0.000000000000e+00 0.000000000000e+00
1.320000000000e-03 0.000000000000e+00 0.000000000000e+00
1.340000000000e-03 0.000000000000e+00 0.000000000000e+00
1.360000000000e-03 0.000000000000e+00 0.000000000000e+00
1.380000000000e-03 0.000000000000e+00 0.000000000000e+00
1.400000000000e-03 0.000000000000e+00 0.000000000000e+00
1.420000000000e-03 0.000000000000e+00 0.000000000000e+00
1.440000000000e-03 0.000000000000e+00 0.000000000000e+00
1.460000000000e-03 0.000000000000e+00 0.000000000000e+00
1.480000000000e-03 0.000000000000e+00 0.000000000000e+00
1.500000000000e-03 0.000000000000e+00 0.000000000000e+00
1.520000000000e-03 0.000000000000e+00 0.000000000000e+00
1.540000000000e-03 0.000000000000e+00 0.000000000000e+00
1.560000000000e-03 0.000000000000e+00 0.000000000000e+00
1.580000000000e-03 0.000000000000e+00 0.000000000000e+00
1.600000000000e-03 0.000000000000e+00 0.000000000000e+00
1.620000000000e-03 0.000000000000e+00 0.000000000000e+00
1.640000000000e-03 0.000000000000e+00 0.000000000000e+00
1.660000000000e-03 0.000000000000e+00 0.000000000000e+00
1.680000000000e-03 0.000000000000e+00 0.000000000000e+00
1.700000000000e-03 0.000000000000e+00 0.000000000000e+00
1.720000000000e-03 0.000000000000e+00 0.000000000000e+00
1.740000000000e-03 0.000000000000e+00 0.000000000000e+00
1.760000000000e-03 0.000000000000e+00 0.000000000000e+00
1.780000000000e-03 0.000000000000e+00 0.000000000000e+00
1.800000000000e-03 0.000000000000e+00 0.000000000000e+00
1.820000000000e-03 0.000000000000e+00 0.000000000000e+00
1.840000000000e-03 0.000000000000e+00 0.000000000000e+00
1.860000000000e-03 0.000000000000e+00 0.000000000000e+00
1.880000000000e-03 0.000000000000e+00 0.000000000000e+00
1.900000000000e-03 0.000000000000e+00 0.000000000000e+00
1.920000000000e-03 0.000000000000e+00 0.000000000000e+00
1.940000000000e-03 0.000000000000e+00 0.000000000000e+00
1.960000000000e-03 0.000000000000e+00 0.000000000000e+00
1.980000000000e-03 0.000000000000e+00 0.000000000000e+00
2.000000000000e-03 0.000000000000e+00 0.000000000000e+00
CELLS 100 300
2 0 1
2 1 2
2 2 3
2 3 4
2 4 5
2 5 6
2 6 7
2 7 8
2 8 9
2 9 10
2 10 11
2 11 12
2 12 13
2 13 14
2 14 15
2 15 16
2 16 17
2 17 18
2 18 19
2 19 20
2 20 21
2 21 22
2 22 23
2 23 24
2 24 25
2 25 26
2 26 27
2 27 28
2 28 29
2 29 30
2 30 31
2 31 32
2 32 33
2 33 34
2 34 35
2 35 36
2 36 37
2 37 38
2 38 39
2 39 40
2 40 41
2 41 42
2 42 43
2 43 44
2 44 45
2 45 46
2 46 47
2 47 48
2 48 49
2 49 50
2 50 51
2 51 52
2 52 53
2 53 54
2 54 55
2 55 56
2 56 57
2 57 58
2 58 59
2 59 60
2 60 61
2 61 62
2 62 63
2 63 64
2 64 65
2 65 66
2 66 67
2 67 68
2 68 69
2 69 70
2 70 71
2 71 72
2 72 73
2 73 74
2 74 75
2 75 76
2 76 77
2 77 78
2 78 79
2 79 80
2 80 81
2 81 82
2 82 83
2 83 84
2 84 85
2 85 86
2 86 87
2 87 88
2 88 89
2 89 90
2 90 91
2 91 92
2 92 93
2 93 94
2 94 95
2 95 96
2 96 97
2 97 98
2 98 99
2 99 100

CELL_TYPES 100
3
3
3
3
3
3
3
3
3
3
3
3
3
3
3
3
3
3
3
3
3
3
3
3
3
3
3
3
3
3
3
3
3
3
3
3
3
3
3
3
3
3
3
3
3
3
3
3
3
3
3
3
3
3
3
3
3
3
3
3
3
3
3
3
3
3
3
3
3
3
3
3
3
3
3
3
3
3
3
3
3
3
3
3
3
3
3
3
3
3
3
3
3
3
3
3
3
3
3
3

POINT_DATA 101
SCALARS HEAD double 1
LOOKUP_TABLE default
1.000000000000e+01
1.000000000000e+01
1.000000000000e+01
1.000000000000e+01
1.000000000000e+01
1.000000000000e+01
1.000000000000e+01
1.000000000000e+01
1.000000000000e+01
1.000000000000e+01
1.000000000000e+01
1.000000000000e+01
1.000000000000e+01
1.000000000000e+01
1.000000000000e+01
1.000000000000e+01
1.000000000000e+01
1.000000000000e+01
1.000000000000e+01
1.000000000000e+01
1.000000000000e+01
1.000000000000e+01
1.000000000000e+01
1.000000000000e+01
1.000000000000e+01
1.000000000000e+01
1.000000000000e+01
1.000000000000e+01
1.000000000000e+01
1.000000000000e+01
1.000000000000e+01
1.000000000000e+01
1.000000000000e+01
1.000000000000e+01
1.000000000000e+01
1.000000000000e+01
1.000000000000e+01
1.000000000000e+01
1.000000000000e+01
1.000000000000e+01
1.000000000000e+01
1.000000000000e+01
1.000000000000e+01
1.000000000000e+01
1.000000000000e+01
1.000000000000e+01
1.000000000000e+01
1.000000000000e+01
1.000000000000e+01
1.000000000000e+01
1.000000000000e+01
1.000000000000e+01
1.000000000000e+01
1.000000000000e+01
1.000000000000e+01
1.000000000000e+01
1.000000000000e+01
1.000000000000e+01
1.000000000000e+01
1.000000000000e+01
1.000000000000e+01
1.000000000000e+01
1.000000000000e+01
1.000000000000e+01
1.000000000000e+01
1.000000000000e+01
1.000000000000e+01
1.000000000000e+01
1.000000000000e+01
1.000000000000e+01
1.000000000000e+01
1.000000000000e+01
1.000000000000e+01
1.000000000000e+01
1.000000000000e+01
1.000000000000e+01
1.000000000000e+01
1.000000000000e+01
1.000000000000e+01
1.000000000000e+01
1.000000000000e+01
1.000000000000e+01
1.000000000000e+01
1.000000000000e+01
1.000000000000e+01
1.000000000000e+01
1.000000000000e+01
1.000000000000e+01
1.000000000000e+01
1.000000000000e+01
1.000000000000e+01
1.000000000000e+01
1.000000000000e+01
1.000000000000e+01
1.000000000000e+01
1.000000000000e+01
1.000000000000e+01
1.000000000000e+01
1.000000000000e+01
1.000000000000e+01
1.000000000000e+01
SCALARS 1-Ael double 1
LOOKUP_TABLE default
1.448038379038e+00
1.453345911122e+00
1.446094319876e+00
1.438893292448e+00
1.431746236989e+00
1.424656361560e+00
1.417626685683e+00
1.410660094400e+00
1.403759251981e+00
1.396926575301e+00
1.390164366978e+00
1.383474723912e+00
1.376859573495e+00
1.370320671326e+00
1.363859577241e+00
1.357477669636e+00
1.351176206260e+00
1.344956302894e+00
1.338818873471e+00
1.332764740892e+00
1.326794543270e+00
1.320908851922e+00
1.315108081074e+00
1.309392508814e+00
1.303762336894e+00
1.298217547201e+00
1.292758168469e+00
1.287384120692e+00
1.282095175141e+00
1.276891042869e+00
1.271771345644e+00
1.266735701731e+00
1.261783572275e+00
1.256914291722e+00
1.252127276767e+00
1.247421901917e+00
1.242797462789e+00
1.238253191651e+00
1.233788219038e+00
1.229401653662e+00
1.225092657434e+00
1.220860386549e+00
1.216703935699e+00
1.212622280247e+00
1.208614431256e+00
1.204679471682e+00
1.200816358141e+00
1.197024101037e+00
1.193301659464e+00
1.189647981917e+00
1.186062046138e+00
1.182542805472e+00
1.179089241093e+00
1.175700277174e+00
1.172374859804e+00
1.169112010925e+00
1.165910688369e+00
1.162769841626e+00
1.159688445166e+00
1.156665463543e+00
1.153699880578e+00
1.150790683903e+00
1.147936880033e+00
1.145137525755e+00
1.142391668456e+00
1.139698317967e+00
1.137056484920e+00
1.134465193871e+00
1.131923546611e+00
1.129430656818e+00
1.126985590172e+00
1.124587476895e+00
1.122235442769e+00
1.119928621220e+00
1.117666152426e+00
1.115447177835e+00
1.113270883067e+00
1.111136435193e+00
1.109043054722e+00
1.106989964353e+00
1.104976345954e+00
1.103001444432e+00
1.101064565564e+00
1.099164954138e+00
1.097301864446e+00
1.095474597274e+00
1.093682450700e+00
1.091924743766e+00
1.090200814548e+00
1.088509995497e+00
1.086851637261e+00
1.085225116423e+00
1.083629800325e+00
1.082065077510e+00
1.080530357800e+00
1.079025043079e+00
1.077548562310e+00
1.076100352900e+00
1.074679860558e+00
1.073286544172e+00
1.070357389076e+00
SCALARS 2-Bel double 1
LOOKUP_TABLE default
5.519616209621e-01
5.466540883588e-01
5.539056786706e-01
5.611067052028e-01
5.682537598072e-01
5.753436344247e-01
5.823733095272e-01
5.893399000765e-01
5.962407418045e-01
6.030734178323e-01
6.098356255458e-01
6.165252680391e-01
6.231404179233e-01
6.296793196032e-01
6.361404132344e-01
6.425223204255e-01
6.488237834245e-01
6.550436864487e-01
6.611811155658e-01
6.672352478741e-01
6.732054452580e-01
6.790911364006e-01
6.848919070727e-01
6.906074791888e-01
6.962376509927e-01
7.017824405984e-01
7.072418192678e-01
7.126158670102e-01
7.179048125485e-01
7.231089448328e-01
7.282286420902e-01
7.332642860568e-01
7.382164155863e-01
7.430856962305e-01
7.478727112941e-01
7.525780862687e-01
7.572025255366e-01
7.617467968274e-01
7.662117696078e-01
7.705983351619e-01
7.749073315799e-01
7.791396026631e-01
7.832960537213e-01
7.873777093897e-01
7.913855586040e-01
7.953205184074e-01
7.991836321839e-01
8.029758895284e-01
8.066983313457e-01
8.103520091400e-01
8.139379451687e-01
8.174571860868e-01
8.209107507196e-01
8.242997148932e-01
8.276251325190e-01
8.308879816522e-01
8.340893044623e-01
8.372301514591e-01
8.403115481700e-01
8.433345300424e-01
8.463001132547e-01
8.492093101746e-01
8.520631142863e-01
8.548624688029e-01
8.576083263367e-01
8.603016770568e-01
8.629435103303e-01
8.655348016024e-01
8.680764490809e-01
8.705693390876e-01
8.730144059430e-01
8.754125194236e-01
8.777645537488e-01
8.800713754923e-01
8.823338444752e-01
8.845528192507e-01
8.867291141965e-01
8.888635622443e-01
8.909569428829e-01
8.930100334149e-01
8.950236519717e-01
8.969985536453e-01
8.989354326602e-01
9.008350442283e-01
9.026981340565e-01
9.045254013593e-01
9.063175480593e-01
9.080752551145e-01
9.097991844484e-01
9.114900036107e-01
9.131483619526e-01
9.147748828921e-01
9.163701990870e-01
9.179349219937e-01
9.194696417917e-01
9.209749565958e-01
9.224514374441e-01
9.238996469288e-01
9.253201393415e-01
9.267134557940e-01
9.296426109238e-01
SCALARS 3-H double 1
LOOKUP_TABLE default
1.994509163545e-04
1.995314361290e-04
1.995314913633e-04
1.994500697531e-04
1.995315313453e-04
1.995315504671e-04
1.994500818059e-04
1.994501006943e-04
1.995316141070e-04
1.994500852364e-04
1.995314189446e-04
1.994501130066e-04
1.994500895700e-04
1.995316277026e-04
1.995316773732e-04
1.994501114501e-04
1.994501129923e-04
1.994501198097e-04
1.994501016919e-04
1.995316366708e-04
1.995317138918e-04
1.995316940290e-04
1.995314743527e-04
1.994501166944e-04
1.994501380704e-04
1.995314778180e-04
1.994501388543e-04
1.995316070068e-04
1.995314777203e-04
1.994501549013e-04
1.995317187748e-04
1.994501527302e-04
1.994501359013e-04
1.995316902523e-04
1.994501367037e-04
1.995316842738e-04
1.995315138194e-04
1.994501533083e-04
1.994501433834e-04
1.994501348518e-04
1.995314731895e-04
1.995315736784e-04
1.995315932468e-04
1.994501443464e-04
1.995316195926e-04
1.994501361116e-04
1.994501371468e-04
1.994501620304e-04
1.994501569915e-04
1.995316023415e-04
1.994501529440e-04
1.994501672578e-04
1.994501459440e-04
1.994501537681e-04
1.994501609784e-04
1.995315465061e-04
1.995316102668e-04
1.994501485164e-04
1.994501552923e-04
1.994501548764e-04
1.994501572809e-04
1.995315788886e-04
1.994501357063e-04
1.995316413497e-04
1.994501345212e-04
1.995315636363e-04
1.994501691948e-04
1.994501422090e-04
1.994501665659e-04
1.995315572178e-04
1.994501402122e-04
1.994501356572e-04
1.994501502338e-04
1.995316140291e-04
1.995315428006e-04
1.995316071234e-04
1.994501684128e-04
1.994501679372e-04
1.995315484369e-04
1.995314750286e-04
1.994501590516e-04
1.994501533799e-04
1.994501634911e-04
1.995316109883e-04
1.995314681384e-04
1.994501705421e-04
1.995316222168e-04
1.994501415488e-04
1.994501404580e-04
1.994501593932e-04
1.995315515883e-04
1.995315698611e-04
1.995314873844e-04
1.995316136256e-04
1.994501631903e-04
1.995316174206e-04
1.994501775433e-04
1.995315475983e-04
1.995316145326e-04
1.994501554544e-04
1.994499886698e-04
SCALARS 4-Inrt double 1
LOOKUP_TABLE default
0.000000000000e+00
0.000000000000e+00
0.000000000000e+00
0.000000000000e+00
0.000000000000e+00
0.000000000000e+00
0.000000000000e+00
0.000000000000e+00
0.000000000000e+00
0.000000000000e+00
0.000000000000e+00
0.000000000000e+00
0.000000000000e+00
0.000000000000e+00
0.000000000000e+00
0.000000000000e+00
0.000000000000e+00
0.000000000000e+00
0.000000000000e+00
0.000000000000e+00
0.000000000000e+00
0.000000000000e+00
0.000000000000e+00
0.000000000000e+00
0.000000000000e+00
0.000000000000e+00
0.000000000000e+00
0.000000000000e+00
0.000000000000e+00
0.000000000000e+00
0.000000000000e+00
0.000000000000e+00
0.000000000000e+00
0.000000000000e+00
0.000000000000e+00
0.000000000000e+00
0.000000000000e+00
0.000000000000e+00
0.000000000000e+00
0.000000000000e+00
0.000000000000e+00
0.000000000000e+00
0.000000000000e+00
0.000000000000e+00
0.000000000000e+00
0.000000000000e+00
0.000000000000e+00
0.000000000000e+00
0.000000000000e+00
0.000000000000e+00
0.000000000000e+00
0.000000000000e+00
0.000000000000e+00
0.000000000000e+00
0.000000000000e+00
0.000000000000e+00
0.000000000000e+00
0.000000000000e+00
0.000000000000e+00
0.000000000000e+00
0.000000000000e+00
0.000000000000e+00
0.000000000000e+00
0.000000000000e+00
0.000000000000e+00
0.000000000000e+00
0.000000000000e+00
0.000000000000e+00
0.000000000000e+00
0.000000000000e+00
0.000000000000e+00
0.000000000000e+00
0.000000000000e+00
0.000000000000e+00
0.000000000000e+00
0.000000000000e+00
0.000000000000e+00
0.000000000000e+00
0.000000000000e+00
0.000000000000e+00
0.000000000000e+00
0.000000000000e+00
0.000000000000e+00
0.000000000000e+00
0.000000000000e+00
0.000000000000e+00
0.000000000000e+00
0.000000000000e+00
0.000000000000e+00
0.000000000000e+00
0.000000000000e+00
0.000000000000e+00
0.000000000000e+00
0.000000000000e+00
0.000000000000e+00
0.000000000000e+00
0.000000000000e+00
0.000000000000e+00
0.000000000000e+00
0.000000000000e+00
0.000000000000e+00
SCALARS 5-O double 1
LOOKUP_TABLE default
1.009972554693e-02
1.009068460390e-02
1.007436308323e-02
1.005870237847e-02
1.004383845790e-02
1.002965935583e-02
1.001617211829e-02
1.000346214436e-02
9.991530325294e-03
9.980252572086e-03
9.969787364905e-03
9.959965200795e-03
9.950899140544e-03
9.942578356459e-03
9.934908581242e-03
9.927875301163e-03
9.921544328189e-03
9.915857787134e-03
9.910797414163e-03
9.906384852163e-03
9.902518511160e-03
9.899218542663e-03
9.896463505304e-03
9.894191387230e-03
9.892461423695e-03
9.891251481921e-03
9.890417183832e-03
9.890099134648e-03
9.890152872437e-03
9.890556453029e-03
9.891410175434e-03
9.892529424466e-03
9.894015284950e-03
9.895846975715e-03
9.897881693539e-03
9.900262596408e-03
9.902847739686e-03
9.905618545513e-03
9.908637899951e-03
9.911847347831e-03
9.915270338982e-03
9.918808927160e-03
9.922487621369e-03
9.926250471224e-03
9.930204877058e-03
9.934173742458e-03
9.938265734453e-03
9.942427214032e-03
9.946645854186e-03
9.950950848773e-03
9.955208787408e-03
9.959531330257e-03
9.963867863654e-03
9.968209045744e-03
9.972546047952e-03
9.976911194864e-03
9.981215390650e-03
9.985451328988e-03
9.989693724212e-03
9.993895634547e-03
9.998051154471e-03
1.000219575070e-02
1.000620225328e-02
1.001022901543e-02
1.001410896038e-02
1.001800125163e-02
1.002173970647e-02
1.002544350701e-02
1.002906918762e-02
1.003265504640e-02
1.003607697190e-02
1.003945523724e-02
1.004274765156e-02
1.004599372453e-02
1.004911092528e-02
1.005213948585e-02
1.005503791081e-02
1.005788744747e-02
1.006068790165e-02
1.006335791852e-02
1.006589783503e-02
1.006838944890e-02
1.007079241701e-02
1.007314831244e-02
1.007537643154e-02
1.007747788844e-02
1.007957571628e-02
1.008150827347e-02
1.008339892597e-02
1.008520831464e-02
1.008697853520e-02
1.008862970338e-02
1.009020397207e-02
1.009170309319e-02
1.009308786913e-02
1.009448218855e-02
1.009572490749e-02
1.009698061140e-02
1.009812901718e-02
1.009917190938e-02
1.009972507400e-02
SCALARS 6-Zz double 1
LOOKUP_TABLE default
0.000000000000e+00
0.000000000000e+00
0.000000000000e+00
0.000000000000e+00
0.000000000000e+00
0.000000000000e+00
0.000000000000e+00
0.000000000000e+00
0.000000000000e+00
0.000000000000e+00
0.000000000000e+00
0.000000000000e+00
0.000000000000e+00
0.000000000000e+00
0.000000000000e+00
0.000000000000e+00
0.000000000000e+00
0.000000000000e+00
0.000000000000e+00
0.000000000000e+00
0.000000000000e+00
0.000000000000e+00
0.000000000000e+00
0.000000000000e+00
0.000000000000e+00
0.000000000000e+00
0.000000000000e+00
0.000000000000e+00
0.000000000000e+00
0.000000000000e+00
0.000000000000e+00
0.000000000000e+00
0.000000000000e+00
0.000000000000e+00
0.000000000000e+00
0.000000000000e+00
0.000000000000e+00
0.000000000000e+00
0.000000000000e+00
0.000000000000e+00
0.000000000000e+00
0.000000000000e+00
0.000000000000e+00
0.000000000000e+00
0.000000000000e+00
0.000000000000e+00
0.000000000000e+00
0.000000000000e+00
0.000000000000e+00
0.000000000000e+00
0.000000000000e+00
0.000000000000e+00
0.000000000000e+00
0.000000000000e+00
0.000000000000e+00
0.000000000000e+00
0.000000000000e+00
0.000000000000e+00
0.000000000000e+00
0.000000000000e+00
0.000000000000e+00
0.000000000000e+00
0.000000000000e+00
0.000000000000e+00
0.000000000000e+00
0.000000000000e+00
0.000000000000e+00
0.000000000000e+00
0.000000000000e+00
0.000000000000e+00
0.000000000000e+00
0.000000000000e+00
0.000000000000e+00
0.000000000000e+00
0.000000000000e+00
0.000000000000e+00
0.000000000000e+00
0.000000000000e+00
0.000000000000e+00
0.000000000000e+00
0.000000000000e+00
0.000000000000e+00
0.000000000000e+00
0.000000000000e+00
0.000000000000e+00
0.000000000000e+00
0.000000000000e+00
0.000000000000e+00
0.000000000000e+00
0.000000000000e+00
0.000000000000e+00
0.000000000000e+00
0.000000000000e+00
0.000000000000e+00
0.000000000000e+00
0.000000000000e+00
0.000000000000e+00
0.000000000000e+00
0.000000000000e+00
0.000000000000e+00
0.000000000000e+00
SCALARS Ael double 1
LOOKUP_TABLE default
 1.448038408463e-03
 1.098431199746e-03
 1.162755142244e-03
 1.231067108458e-03
 1.303616405165e-03
 1.380668546953e-03
 1.462505450979e-03
 1.549427947249e-03
 1.641753529899e-03
 1.739821760811e-03
 1.843993326493e-03
 1.954650671155e-03
 2.072201957400e-03
 2.197079331690e-03
 2.329743646315e-03
 2.470683416245e-03
 2.620420584447e-03
 2.779506827675e-03
 2.948530789011e-03
 3.128118132536e-03
 3.318932049531e-03
 3.521682327297e-03
 3.737116248736e-03
 3.966036526469e-03
 4.209289057988e-03
 4.467777070442e-03
 4.742464154064e-03
 5.034366689797e-03
 5.344572427571e-03
 5.674232663836e-03
 6.024575915715e-03
 6.396906612681e-03
 6.792607241922e-03
 7.213152810358e-03
 7.660114993815e-03
 8.135155847576e-03
 8.640050234404e-03
 9.176677010204e-03
 9.747040025838e-03
 1.035326690979e-02
 1.099762780521e-02
 1.168252438118e-02
 1.241051932475e-02
 1.318432193388e-02
 1.400684066199e-02
 1.488114106692e-02
 1.581049506933e-02
 1.679838289459e-02
 1.784849347277e-02
 1.896476479568e-02
 2.015137078222e-02
 2.141275773905e-02
 2.275364991577e-02
 2.417906275339e-02
 2.569434686831e-02
 2.730518030342e-02
 2.901759154642e-02
 3.083800707664e-02
 3.277324686268e-02
 3.483057023895e-02
 3.701769203629e-02
 3.934281601583e-02
 4.181466695526e-02
 4.444252746755e-02
 4.723624718484e-02
 5.020631192729e-02
 5.336386455442e-02
 5.672076292799e-02
 6.028962521490e-02
 6.408383813916e-02
 6.811764535073e-02
 7.240622078197e-02
 7.696564118473e-02
 8.181306755002e-02
 8.696667133712e-02
 9.244585336085e-02
 9.827117577975e-02
 1.044645422696e-01
 1.110492378336e-01
 1.180499979607e-01
 1.254931168444e-01
 1.334066277677e-01
 1.418202613357e-01
 1.507656210547e-01
 1.602763680968e-01
 1.703882637209e-01
 1.811393231298e-01
 1.925699989870e-01
 2.047232685859e-01
 2.176448400474e-01
 2.313833273676e-01
 2.459904186872e-01
 2.615210292192e-01
 2.780336382373e-01
 2.955903311912e-01
 3.142571805432e-01
 3.341044335017e-01
 3.552067607863e-01
 3.776435823844e-01
 4.014993285463e-01
 4.552566468889e-01
SCALARS Bel double 1
LOOKUP_TABLE default
 5.519616321781e-04
 1.020929625789e-03
 1.083381844092e-03
 1.149727827082e-03
 1.220214150270e-03
 1.295102515779e-03
 1.374671540229e-03
 1.459216352573e-03
 1.549053084410e-03
 1.644515849845e-03
 1.745960222969e-03
 1.853765299575e-03
 1.968332601868e-03
 2.090090859750e-03
 2.219494528529e-03
 2.357028276793e-03
 2.503204883925e-03
 2.658572828976e-03
 2.823713199397e-03
 2.999244039788e-03
 3.185824527886e-03
 3.384150884343e-03
 3.594970766952e-03
 3.819070965452e-03
 4.057295631699e-03
 4.310538499040e-03
 4.579746616067e-03
 4.865935114527e-03
 5.170176282122e-03
 5.493615520526e-03
 5.837466321671e-03
 6.203020774396e-03
 6.591657199573e-03
 7.004836087888e-03
 7.444107008850e-03
 7.911126658534e-03
 8.407648934287e-03
 8.935547043367e-03
 9.496806637059e-03
 1.009354205911e-02
 1.072799359099e-02
 1.140255543543e-02
 1.211976429453e-02
 1.288233299146e-02
 1.369311835706e-02
 1.455518500524e-02
 1.547177917458e-02
 1.644635134912e-02
 1.748258197615e-02
 1.858436887989e-02
 1.975586992626e-02
 2.100149796097e-02
 2.232594864159e-02
 2.373422269004e-02
 2.523161965721e-02
 2.682378581052e-02
 2.851673379556e-02
 3.031684047175e-02
 3.223089966944e-02
 3.426612762496e-02
 3.643020140889e-02
 3.873128350653e-02
 4.117805141792e-02
 4.377972643164e-02
 4.654613418685e-02
 4.948770966595e-02
 5.261555519868e-02
 5.594146635084e-02
 5.947797577769e-02
 6.323843977696e-02
 6.723705072521e-02
 7.148887090977e-02
 7.600997396639e-02
 8.081738465152e-02
 8.592928147567e-02
 9.136491484185e-02
 9.714482075429e-02
 1.032907955692e-01
 1.098260209177e-01
 1.167751697104e-01
 1.241644841701e-01
 1.320217934938e-01
 1.403767662050e-01
 1.492609584919e-01
 1.587078675381e-01
 1.687531422722e-01
 1.794346987099e-01
 1.907928226822e-01
 2.028703870328e-01
 2.157129690590e-01
 2.293690195945e-01
 2.438900606578e-01
 2.593309216109e-01
 2.757498158917e-01
 2.932087388162e-01
 3.117735545104e-01
 3.315143055632e-01
 3.525054931397e-01
 3.748263135890e-01
 3.985609954196e-01
 3.954062280259e-01
SCALARS H double 1
LOOKUP_TABLE default
 1.106904901085e+02
 9.461524651486e+00
 9.847546463902e+00
 1.025703157708e+01
 1.069127587640e+01
 1.115177653929e+01
 1.164003489411e+01
 1.215794462253e+01
 1.270690073796e+01
 1.328892843809e+01
 1.390610328801e+01
 1.456034805982e+01
 1.525415611180e+01
 1.598966376268e+01
 1.676955791195e+01
 1.759626371145e+01
 1.847315206581e+01
 1.940280991138e+01
 2.038865126167e+01
 2.143426608508e+01
 2.254281259851e+01
 2.371923085782e+01
 2.496627891115e+01
 2.628972731986e+01
 2.769307478516e+01
 2.918140471875e+01
 3.076136771616e+01
 3.243702688475e+01
 3.421539211251e+01
 3.610192500520e+01
 3.810418607095e+01
 4.022955582252e+01
 4.248405960631e+01
 4.487620952490e+01
 4.741658469375e+01
 5.011258001222e+01
 5.297545627632e+01
 5.601350587458e+01
 5.923834700632e+01
 6.266099078722e+01
 6.629701388791e+01
 7.015721334986e+01
 7.425757021822e+01
 7.860724332292e+01
 8.323027803491e+01
 8.813838146426e+01
 9.335052973858e+01
 9.888775653629e+01
 1.047660980200e+02
 1.110114860598e+02
 1.176440404626e+02
 1.246900539283e+02
 1.321756165368e+02
 1.401237477005e+02
 1.485700982135e+02
 1.575458476037e+02
 1.670784089876e+02
 1.772078416065e+02
 1.879681219065e+02
 1.994007668310e+02
 2.115474088561e+02
 2.244529596097e+02
 2.381667206272e+02
 2.527456919279e+02
 2.682352976010e+02
 2.846935980482e+02
 3.021773335592e+02
 3.207548157060e+02
 3.405073359293e+02
 3.614968743278e+02
 3.837972764315e+02
 4.075124804445e+02
 4.327029330367e+02
 4.594925850342e+02
 4.879448595592e+02
 5.182006733928e+02
 5.503479026286e+02
 5.845184490661e+02
 6.208486919165e+02
 6.594607280469e+02
 7.004768369069e+02
 7.441059728366e+02
 7.904906037674e+02
 8.397716375150e+02
 8.921621993794e+02
 9.478562612290e+02
 1.007049378248e+03
 1.069986724928e+03
 1.136887526972e+03
 1.207997695360e+03
 1.283595313638e+03
 1.363973813197e+03
 1.449388124050e+03
 1.540225249026e+03
 1.636771699703e+03
 1.739409217467e+03
 1.848535396096e+03
 1.964541700055e+03
 2.087877875339e+03
 2.218998936913e+03
 4.708014431404e+04
SCALARS Inrt double 1
LOOKUP_TABLE default
 9.989999999797e-01
 9.989403195872e-01
 9.988769315068e-01
 9.988096025321e-01
 9.987380847221e-01
 9.986621144684e-01
 9.985814115041e-01
 9.984956778498e-01
 9.984045966925e-01
 9.983078311943e-01
 9.982050232248e-01
 9.980957920141e-01
 9.979797327198e-01
 9.978564149036e-01
 9.977253809119e-01
 9.975861441527e-01
 9.974381872650e-01
 9.972809601707e-01
 9.971138780048e-01
 9.969363189128e-01
 9.967476217101e-01
 9.965470833929e-01
 9.963339564908e-01
 9.961074462526e-01
 9.958667076536e-01
 9.956108422137e-01
 9.953388946132e-01
 9.950498490960e-01
 9.947426256433e-01
 9.944160759058e-01
 9.940689788792e-01
 9.937000363042e-01
 9.933078677769e-01
 9.928910055484e-01
 9.924478889961e-01
 9.919768587443e-01
 9.914761504129e-01
 9.909438879703e-01
 9.903780766655e-01
 9.897765955124e-01
 9.891371892986e-01
 9.884574600883e-01
 9.877348581868e-01
 9.869666725337e-01
 9.861500204867e-01
 9.852818369600e-01
 9.843588628740e-01
 9.833776328739e-01
 9.823344622712e-01
 9.812254331577e-01
 9.800463796411e-01
 9.787928721452e-01
 9.774602007164e-01
 9.760433572733e-01
 9.745370167321e-01
 9.729355169377e-01
 9.712328373236e-01
 9.694225762203e-01
 9.674979267283e-01
 9.654516510623e-01
 9.632760532715e-01
 9.609629502328e-01
 9.585036408073e-01
 9.558888730442e-01
 9.531088093078e-01
 9.501529891970e-01
 9.470102901170e-01
 9.436688853540e-01
 9.401161994971e-01
 9.363388610353e-01
 9.323226519553e-01
 9.280524541474e-01
 9.235121924176e-01
 9.186847738924e-01
 9.135520235868e-01
 9.080946158918e-01
 9.022920017262e-01
 8.961223310738e-01
 8.895623706177e-01
 8.825874161578e-01
 8.751711994862e-01
 8.672857893628e-01
 8.589014862233e-01
 8.499867102205e-01
 8.405078821765e-01
 8.304292969976e-01
 8.197129890745e-01
 8.083185891600e-01
 7.962031721855e-01
 7.833210954419e-01
 7.696238265144e-01
 7.550597603232e-01
 7.395740245811e-01
 7.231082729321e-01
 7.056004649933e-01
 6.869846324706e-01
 6.671906304655e-01
 6.461438730355e-01
 6.237650520123e-01
 5.999698380167e-01
 5.746685625425e-01
SCALARS O double 1
LOOKUP_TABLE default
 5.534525505425e+01
 4.730763179740e+00
 4.923774119338e+00
 5.128516711381e+00
 5.345638898669e+00
 5.575889270055e+00
 5.820018489854e+00
 6.078973399065e+00
 6.353451504522e+00
 6.644465405249e+00
 6.953052883983e+00
 7.280175326937e+00
 7.627079413483e+00
 7.994833303173e+00
 8.384780445993e+00
 8.798133418090e+00
 9.236577672070e+00
 9.701406676350e+00
 1.019432743799e+01
 1.071713494151e+01
 1.127140829565e+01
 1.185961752878e+01
 1.248314166522e+01
 1.314486598618e+01
 1.384653984257e+01
 1.459070494071e+01
 1.538068657896e+01
 1.621851631136e+01
 1.710769908255e+01
 1.805096569590e+01
 1.905209640616e+01
 2.011478147037e+01
 2.124203356230e+01
 2.243810873398e+01
 2.370829654412e+01
 2.505629444306e+01
 2.648773282983e+01
 2.800675789944e+01
 2.961917875260e+01
 3.133050094817e+01
 3.314851282286e+01
 3.507861289838e+01
 3.712879169876e+01
 3.930362863980e+01
 4.161514640915e+01
 4.406919856291e+01
 4.667527316660e+01
 4.944388706134e+01
 5.238305832990e+01
 5.550575290963e+01