# vtk DataFile Version 3.0
Unstructured Grid from OpenGeoSys
ASCII
DATASET UNSTRUCTURED_GRID
FIELD TimesAndCycles 2
TIME 1 1 double
2.100000000000e+04
CYLCE 1 1 long
210
POINTS 101 double
0.000000000000e+00 0.000000000000e+00 0.000000000000e+00
5.000000000000e-03 0.000000000000e+00 0.000000000000e+00
1.000000000000e-02 0.000000000000e+00 0.000000000000e+00
1.500000000000e-02 0.000000000000e+00 0.000000000000e+00
2.000000000000e-02 0.000000000000e+00 0.000000000000e+00
2.500000000000e-02 0.000000000000e+00 0.000000000000e+00
3.000000000000e-02 0.000000000000e+00 0.000000000000e+00
3.500000000000e-02 0.000000000000e+00 0.000000000000e+00
4.000000000000e-02 0.000000000000e+00 0.000000000000e+00
4.500000000000e-02 0.000000000000e+00 0.000000000000e+00
5.000000000000e-02 0.000000000000e+00 0.000000000000e+00
5.500000000000e-02 0.000000000000e+00 0.000000000000e+00
6.000000000000e-02 0.000000000000e+00 0.000000000000e+00
6.500000000000e-02 0.000000000000e+00 0.000000000000e+00
7.000000000000e-02 0.000000000000e+00 0.000000000000e+00
7.500000000000e-02 0.000000000000e+00 0.000000000000e+00
8.000000000000e-02 0.000000000000e+00 0.000000000000e+00
8.500000000000e-02 0.000000000000e+00 0.000000000000e+00
9.000000000000e-02 0.000000000000e+00 0.000000000000e+00
9.500000000000e-02 0.000000000000e+00 0.000000000000e+00
1.000000000000e-01 0.000000000000e+00 0.000000000000e+00
1.050000000000e-01 0.000000000000e+00 0.000000000000e+00
1.100000000000e-01 0.000000000000e+00 0.000000000000e+00
1.150000000000e-01 0.000000000000e+00 0.000000000000e+00
1.200000000000e-01 0.000000000000e+00 0.000000000000e+00
1.250000000000e-01 0.000000000000e+00 0.000000000000e+00
1.300000000000e-01 0.000000000000e+00 0.000000000000e+00
1.350000000000e-01 0.000000000000e+00 0.000000000000e+00
1.400000000000e-01 0.000000000000e+00 0.000000000000e+00
1.450000000000e-01 0.000000000000e+00 0.000000000000e+00
1.500000000000e-01 0.000000000000e+00 0.000000000000e+00
1.550000000000e-01 0.000000000000e+00 0.000000000000e+00
1.600000000000e-01 0.000000000000e+00 0.000000000000e+00
1.650000000000e-01 0.000000000000e+00 0.000000000000e+00
1.700000000000e-01 0.000000000000e+00 0.000000000000e+00
1.750000000000e-01 0.000000000000e+00 0.000000000000e+00
1.800000000000e-01 0.000000000000e+00 0.000000000000e+00
1.850000000000e-01 0.000000000000e+00 0.000000000000e+00
1.900000000000e-01 0.000000000000e+00 0.000000000000e+00
1.950000000000e-01 0.000000000000e+00 0.000000000000e+00
2.000000000000e-01 0.000000000000e+00 0.000000000000e+00
2.050000000000e-01 0.000000000000e+00 0.000000000000e+00
2.100000000000e-01 0.000000000000e+00 0.000000000000e+00
2.150000000000e-01 0.000000000000e+00 0.000000000000e+00
2.200000000000e-01 0.000000000000e+00 0.000000000000e+00
2.250000000000e-01 0.000000000000e+00 0.000000000000e+00
2.300000000000e-01 0.000000000000e+00 0.000000000000e+00
2.350000000000e-01 0.000000000000e+00 0.000000000000e+00
2.400000000000e-01 0.000000000000e+00 0.000000000000e+00
2.450000000000e-01 0.000000000000e+00 0.000000000000e+00
2.500000000000e-01 0.000000000000e+00 0.000000000000e+00
2.550000000000e-01 0.000000000000e+00 0.000000000000e+00
2.600000000000e-01 0.000000000000e+00 0.000000000000e+00
2.650000000000e-01 0.000000000000e+00 0.000000000000e+00
2.700000000000e-01 0.000000000000e+00 0.000000000000e+00
2.750000000000e-01 0.000000000000e+00 0.000000000000e+00
2.800000000000e-01 0.000000000000e+00 0.000000000000e+00
2.850000000000e-01 0.000000000000e+00 0.000000000000e+00
2.900000000000e-01 0.000000000000e+00 0.000000000000e+00
2.950000000000e-01 0.000000000000e+00 0.000000000000e+00
3.000000000000e-01 0.000000000000e+00 0.000000000000e+00
3.050000000000e-01 0.000000000000e+00 0.000000000000e+00
3.100000000000e-01 0.000000000000e+00 0.000000000000e+00
3.150000000000e-01 0.000000000000e+00 0.000000000000e+00
3.200000000000e-01 0.000000000000e+00 0.000000000000e+00
3.250000000000e-01 0.000000000000e+00 0.000000000000e+00
3.300000000000e-01 0.000000000000e+00 0.000000000000e+00
3.350000000000e-01 0.000000000000e+00 0.000000000000e+00
3.400000000000e-01 0.000000000000e+00 0.000000000000e+00
3.450000000000e-01 0.000000000000e+00 0.000000000000e+00
3.500000000000e-01 0.000000000000e+00 0.000000000000e+00
3.550000000000e-01 0.000000000000e+00 0.000000000000e+00
3.600000000000e-01 0.000000000000e+00 0.000000000000e+00
3.650000000000e-01 0.000000000000e+00 0.000000000000e+00
3.700000000000e-01 0.000000000000e+00 0.000000000000e+00
3.750000000000e-01 0.000000000000e+00 0.000000000000e+00
3.800000000000e-01 0.000000000000e+00 0.000000000000e+00
3.850000000000e-01 0.000000000000e+00 0.000000000000e+00
3.900000000000e-01 0.000000000000e+00 0.000000000000e+00
3.950000000000e-01 0.000000000000e+00 0.000000000000e+00
4.000000000000e-01 0.000000000000e+00 0.000000000000e+00
4.050000000000e-01 0.000000000000e+00 0.000000000000e+00
4.100000000000e-01 0.000000000000e+00 0.000000000000e+00
4.150000000000e-01 0.000000000000e+00 0.000000000000e+00
4.200000000000e-01 0.000000000000e+00 0.000000000000e+00
4.250000000000e-01 0.000000000000e+00 0.000000000000e+00
4.300000000000e-01 0.000000000000e+00 0.000000000000e+00
4.350000000000e-01 0.000000000000e+00 0.000000000000e+00
4.400000000000e-01 0.000000000000e+00 0.000000000000e+00
4.450000000000e-01 0.000000000000e+00 0.000000000000e+00
4.500000000000e-01 0.000000000000e+00 0.000000000000e+00
4.550000000000e-01 0.000000000000e+00 0.000000000000e+00
4.600000000000e-01 0.000000000000e+00 0.000000000000e+00
4.650000000000e-01 0.000000000000e+00 0.000000000000e+00
4.700000000000e-01 0.000000000000e+00 0.000000000000e+00
4.750000000000e-01 0.000000000000e+00 0.000000000000e+00
4.800000000000e-01 0.000000000000e+00 0.000000000000e+00
4.850000000000e-01 0.000000000000e+00 0.000000000000e+00
4.900000000000e-01 0.000000000000e+00 0.000000000000e+00
4.950000000000e-01 0.000000000000e+00 0.000000000000e+00
5.000000000000e-01 0.000000000000e+00 0.000000000000e+00
CELLS 100 300
2 0 1
2 2 3
2 4 5
2 6 7
2 8 9
2 10 11
2 12 13
2 14 15
2 16 17
2 18 19
2 20 21
2 22 23
2 24 25
2 26 27
2 28 29
2 30 31
2 32 33
2 34 35
2 36 37
2 38 39
2 40 41
2 42 43
2 44 45
2 46 47
2 48 49
2 50 51
2 52 53
2 54 55
2 56 57
2 58 59
2 60 61
2 62 63
2 64 65
2 66 67
2 68 69
2 70 71
2 72 73
2 74 75
2 76 77
2 78 79
2 80 81
2 82 83
2 84 85
2 86 87
2 88 89
2 90 91
2 92 93
2 94 95
2 96 97
2 98 99
2 1 2
2 3 4
2 5 6
2 7 8
2 9 10
2 11 12
2 13 14
2 15 16
2 17 18
2 19 20
2 21 22
2 23 24
2 25 26
2 27 28
2 29 30
2 31 32
2 33 34
2 35 36
2 37 38
2 39 40
2 41 42
2 43 44
2 45 46
2 47 48
2 49 50
2 51 52
2 53 54
2 55 56
2 57 58
2 59 60
2 61 62
2 63 64
2 65 66
2 67 68
2 69 70
2 71 72
2 73 74
2 75 76
2 77 78
2 79 80
2 81 82
2 83 84
2 85 86
2 87 88
2 89 90
2 91 92
2 93 94
2 95 96
2 97 98
2 99 100

CELL_TYPES 100
3
3
3
3
3
3
3
3
3
3
3
3
3
3
3
3
3
3
3
3
3
3
3
3
3
3
3
3
3
3
3
3
3
3
3
3
3
3
3
3
3
3
3
3
3
3
3
3
3
3
3
3
3
3
3
3
3
3
3
3
3
3
3
3
3
3
3
3
3
3
3
3
3
3
3
3
3
3
3
3
3
3
3
3
3
3
3
3
3
3
3
3
3
3
3
3
3
3
3
3

POINT_DATA 101
SCALARS 1-C double 1
LOOKUP_TABLE default
9.970358361137e-06
2.733748490234e-05
6.092386010338e-05
1.222082484465e-04
2.299827805651e-04
4.148020894022e-04
7.261112749175e-04
1.243658138799e-03
2.095561671662e-03
3.486252663251e-03
5.739500107968e-03
9.372040655423e-03
1.525070962704e-02
2.490892919982e-02
4.069697455049e-02
6.447836173576e-02
9.624453989245e-02
1.432180357942e-01
1.426673097736e-01
1.419721431050e-01
1.411044463914e-01
1.400181568844e-01
1.386995021187e-01
1.371023237581e-01
1.352240356878e-01
1.330321312070e-01
1.305184199221e-01
1.277049450331e-01
1.246013439025e-01
1.212501258325e-01
1.177059094916e-01
1.140353879149e-01
1.103164528349e-01
1.066324160884e-01
1.030595810792e-01
9.966780577560e-02
9.663630668533e-02
9.427154628045e-02
9.201039776903e-02
9.393860352147e-02
9.566452414572e-02
9.719944607891e-02
9.880125545726e-02
1.004480302003e-01
1.021265709074e-01
1.038262258185e-01
1.055238524311e-01
1.072019159219e-01
1.088434481024e-01
1.104185868834e-01
1.119216991032e-01
1.133303973329e-01
1.146319934092e-01
1.158172854897e-01
1.168779145030e-01
1.178152916909e-01
1.186344938142e-01
1.193393559288e-01
1.199414336143e-01
1.204327795109e-01
1.208537839784e-01
1.211891812560e-01
1.214524167459e-01
1.216751193128e-01
1.218434214071e-01
1.219774915165e-01
1.220767816271e-01
1.221552592399e-01
1.222133695951e-01
1.222727858105e-01
1.223036517982e-01
1.223394544014e-01
1.223507857575e-01
1.223542070010e-01
1.223651887807e-01
1.223857606463e-01
1.223746138352e-01
1.223944571125e-01
1.223971992587e-01
1.223902853950e-01
1.223926250956e-01
1.223875316507e-01
1.223989499641e-01
1.224024609787e-01
1.223837551621e-01
1.223969133084e-01
1.223933875414e-01
1.223857786675e-01
1.223926556012e-01
1.223856145022e-01
1.223940752607e-01
1.223988598753e-01
1.223989122787e-01
1.223933719236e-01
1.223941293482e-01
1.224034302898e-01
1.223943108545e-01
1.223981032113e-01
1.224664994121e-01
1.223908212595e-01
1.223837590205e-01
SCALARS 2-Ca double 1
LOOKUP_TABLE default
9.970358361137e-06
2.006482665274e-05
3.952004850102e-05
7.483245788498e-05
1.365184244295e-04
2.414801313771e-04
4.167539829769e-04
7.054533832280e-04
1.176101671199e-03
1.936973279982e-03
3.158059979213e-03
5.108430197342e-03
8.235438787428e-03
1.332372122560e-02
2.157118629581e-02
3.393817981593e-02
5.045590806844e-02
7.477918917238e-02
7.559515246111e-02
7.665728218789e-02
7.802724187670e-02
7.977129839347e-02
8.198697494418e-02
8.477227490788e-02
8.826526494212e-02
9.260898476791e-02
9.798029488406e-02
1.045946698202e-01
1.126868500448e-01
1.225356396692e-01
1.344562169796e-01
1.488037985344e-01
1.659739210460e-01
1.863957433071e-01
2.105986687022e-01
2.393203778599e-01
2.723621384895e-01
3.071870917124e-01
3.536647233527e-01
3.335925385006e-01
3.153259171505e-01
2.987367673238e-01
2.826368621278e-01
2.671267583194e-01
2.523279093803e-01
2.383400233440e-01
2.252303100396e-01
2.130515936317e-01
2.018364152035e-01
1.915837739701e-01
1.822972938015e-01
1.739458335102e-01
1.664919498266e-01
1.598880009731e-01
1.540760027965e-01
1.489991138364e-01
1.445980343738e-01
1.408084576590e-01
1.375721740630e-01
1.348117224669e-01
1.324998079484e-01
1.305565743583e-01
1.289349309299e-01
1.276106934086e-01
1.265193093194e-01
1.256355656537e-01
1.249188192585e-01
1.243480582713e-01
1.238935779723e-01
1.235513636541e-01
1.232699163470e-01
1.230646840704e-01
1.228913809095e-01
1.227544214804e-01
1.226594581419e-01
1.226006608976e-01
1.225304889955e-01
1.225067556058e-01
1.224775587683e-01
1.224474038738e-01
1.224329526612e-01
1.224158145370e-01
1.224186538742e-01
1.224160973545e-01
1.223931302319e-01
1.224033164106e-01
1.223977322267e-01
1.223887074691e-01
1.223946171419e-01
1.223869197487e-01
1.223949382153e-01
1.223994267616e-01
1.223992823021e-01
1.223936119177e-01
1.223942840248e-01
1.224035293558e-01
1.223943739186e-01
1.223981431537e-01
1.224665247363e-01
1.223908379275e-01
1.223837726403e-01
SCALARS 3-Cl double 1
LOOKUP_TABLE default
3.988143344455e+00
3.988124564209e+00
3.988089213258e+00
3.988027427396e+00
3.987924766691e+00
3.987760549015e+00
3.987505742088e+00
3.987120356490e+00
3.986550293500e+00
3.985723624421e+00
3.984546309320e+00
3.982897408211e+00
3.980623895967e+00
3.977535252881e+00
3.973398033148e+00
3.967930704378e+00
3.960799523962e+00
3.951615811955e+00
3.939930667855e+00
3.925242745901e+00
3.906995921550e+00
3.884587182242e+00
3.857376294542e+00
3.824699031531e+00
3.785883917366e+00
3.740272211071e+00
3.687240647134e+00
3.626226175399e+00
3.556751726498e+00
3.478451838339e+00
3.391096835433e+00
3.294614201724e+00
3.189105819370e+00
3.074859859209e+00
2.952356338383e+00
2.822265653016e+00
2.685439766177e+00
2.542895973391e+00
2.395793944822e+00
2.245407580695e+00
2.093090187520e+00
1.940238278952e+00
1.788253212949e+00
1.638503033099e+00
1.492286255549e+00
1.350799132792e+00
1.215107722462e+00
1.086125781156e+00
9.645991431786e-01
8.510968701232e-01
7.460090895505e-01
6.495511053272e-01
5.617730777293e-01
4.825743534217e-01
4.117213853043e-01
3.488681138310e-01
2.935776882066e-01
2.453444776260e-01
2.036154409497e-01
1.678100810190e-01
1.373383892956e-01
1.116163687998e-01
9.007890518967e-02
7.218991633937e-02
5.744985041490e-02
4.540071368658e-02
3.562888956458e-02
2.776606226009e-02
2.148858340128e-02
1.651562162391e-02
1.260641966934e-02
9.556953155232e-03
7.196246938226e-03
5.382562419179e-03
3.999624846057e-03
2.953017871950e-03
2.166834287740e-03
1.580638645106e-03
1.146769925419e-03
8.279907113709e-04
5.954729055370e-04
4.270986971928e-04
3.060482178931e-04
2.196415162582e-04
1.584013183956e-04
1.153038098746e-04
8.518677195800e-05
6.428732198642e-05
4.988482231018e-05
4.002795013125e-05
3.332823509066e-05
2.880543778503e-05
2.577288067334e-05
2.375321738206e-05
2.241713906743e-05
2.153918939305e-05
2.096624140553e-05
2.059537674852e-05
2.035915489021e-05
2.021840414427e-05
2.016867161623e-05
SCALARS 4-H double 1
LOOKUP_TABLE default
2.701109245634e-04
2.915098201638e-04
3.274441020256e-04
4.066707108335e-04
5.743675959361e-04
9.016827095751e-04
1.490635019883e-03
2.493391896880e-03
4.147129355132e-03
6.817506324125e-03
1.105069739927e-02
1.763920736423e-02
2.775626651696e-02
4.316292337743e-02
6.583767339611e-02
9.583480681402e-02
1.305948775614e-01
1.746962817260e-01
1.742134785638e-01
1.736026019949e-01
1.728378686554e-01
1.718765513861e-01
1.707042916245e-01
1.692764478976e-01
1.675862341577e-01
1.655984788294e-01
1.632983127374e-01
1.606968118439e-01
1.577939666022e-01
1.546127400174e-01
1.512071632046e-01
1.476195510849e-01
1.438973390945e-01
1.401399121621e-01
1.364324528330e-01
1.328075510550e-01
1.294571291055e-01
1.267333168159e-01
1.239349541346e-01
1.263057623844e-01
1.284670860903e-01
1.304225782252e-01
1.324994591894e-01
1.346319798959e-01
1.368149432804e-01
1.390476398033e-01
1.412938750556e-01
1.435264097435e-01
1.457351632959e-01
1.478668347151e-01
1.499363496732e-01
1.519193988472e-01
1.537484365140e-01
1.554647799524e-01
1.570110332226e-01
1.584103916352e-01
1.596573577696e-01
1.607529219778e-01
1.616948464215e-01
1.625096226883e-01
1.632114237396e-01
1.637757196950e-01
1.642474588965e-01
1.646384420183e-01
1.649557084324e-01
1.652286407443e-01
1.654221395414e-01
1.655791277394e-01
1.656957591604e-01
1.658034183972e-01
1.658772390748e-01
1.659416529162e-01
1.659771600381e-01
1.660091234708e-01
1.660333427268e-01
1.660656646686e-01
1.660671389926e-01
1.660879813783e-01
1.660943484847e-01
1.660890578686e-01
1.660946785909e-01
1.660849088563e-01
1.661048417466e-01
1.661000919541e-01
1.660998551052e-01
1.661085316864e-01
1.660897716877e-01
1.660984229782e-01
1.660997323215e-01
1.661050289009e-01
1.661014462687e-01
1.660987256816e-01
1.661110088365e-01
1.661138380609e-01
1.660935754712e-01
1.661112147951e-01
1.660906272653e-01
1.661061721617e-01
1.661392810147e-01
1.660943380491e-01
1.660953195646e-01
SCALARS 5-Mg double 1
LOOKUP_TABLE default
1.994071672227e+00
1.994069554763e+00
1.994066010440e+00
1.994061089489e+00
1.994055847702e+00
1.994053596465e+00
1.994062228336e+00
1.994098383001e+00
1.994194606750e+00
1.994411091594e+00
1.994854594789e+00
1.995712314564e+00
1.997327218823e+00
2.000352834415e+00
2.005824804829e+00
2.014505534109e+00
2.026188393805e+00
2.044246752599e+00
2.037037491240e+00
2.027936233868e+00
2.016575165290e+00
2.002540449612e+00
1.985400674445e+00
1.964679564616e+00
1.939900729429e+00
1.910559251975e+00
1.876158448605e+00
1.836223362912e+00
1.790290357107e+00
1.737940405333e+00
1.678798110229e+00
1.612538690242e+00
1.538895441474e+00
1.457666602386e+00
1.368639081568e+00
1.271480254424e+00
1.166994051284e+00
1.058532441264e+00
9.362426468276e-01
8.830498553683e-01
8.268837007554e-01
7.685818182313e-01
7.102909998041e-01
6.525727884306e-01
5.959417893016e-01
5.408857688703e-01
4.878474036227e-01
4.372132128684e-01
3.893066044882e-01
3.443832479749e-01
3.026289500770e-01
2.641601164863e-01
2.290265824471e-01
1.972164612274e-01
1.686626043586e-01
1.432502347699e-01
1.208253035436e-01
1.012031370828e-01
8.417698002606e-02
6.952609755337e-02
5.702317067775e-02
4.644079129748e-02
3.755693841072e-02
3.015938407381e-02
2.404903729502e-02
1.904228270599e-02
1.497240715084e-02
1.169023209848e-02
9.064083323274e-03
6.979232968244e-03
5.336945285755e-03
4.053246908525e-03
3.057528317062e-03
2.291066730164e-03
1.705543061710e-03
1.261608684645e-03
9.275419834711e-04
6.780208292050e-04
4.930254530143e-04
3.568768768364e-04
2.574088871170e-04
1.852664622791e-04
1.333201988849e-04
9.618438225491e-05
6.982558938321e-05
5.124880275971e-05
3.824870074607e-05
2.921485937512e-05
2.298087048416e-05
1.870872854833e-05
1.580116297854e-05
1.383583263560e-05
1.251641697215e-05
1.163661460162e-05
1.105389293464e-05
1.067052861880e-05
1.042005659731e-05
1.025774596167e-05
1.015425328855e-05
1.009253406539e-05
1.007071594313e-05
SCALARS 6-O double 1
LOOKUP_TABLE default
2.010568337471e-02
2.016932922147e-02
2.028964620291e-02
2.051589283344e-02
2.092768434684e-02
2.165318927016e-02
2.289305891808e-02
2.496441984509e-02
2.837265150571e-02
3.391711251896e-02
4.284642898654e-02
5.711250559516e-02
7.990934965871e-02
1.167263262324e-01
1.756140135343e-01
2.622027689412e-01
3.752022370962e-01
5.385867190939e-01
5.372189020147e-01
5.354888338520e-01
5.333243789762e-01
5.305931204986e-01
5.272753713666e-01
5.232402251344e-01
5.185067465128e-01
5.129894731406e-01
5.066844474189e-01
4.996886761407e-01
4.920525376921e-01
4.839314912391e-01
4.755267485023e-01
4.670628147359e-01
4.587925043539e-01
4.510024839057e-01
4.439426602383e-01
4.378087405240e-01
4.331960047384e-01
4.311541283452e-01
4.295909597791e-01
4.433283110628e-01
4.564410320639e-01
4.689019658225e-01
4.815853203154e-01
4.943308908777e-01
5.070380439005e-01
5.196206324251e-01
5.319431522372e-01
5.438982521004e-01
5.553964155518e-01
5.662957886183e-01
5.765693692534e-01
5.861281422094e-01
5.948980039588e-01
6.028765286455e-01
6.100204434404e-01
6.163611460807e-01
6.219307714555e-01
6.267640694032e-01
6.309194719083e-01
6.344125036778e-01
6.373979721202e-01
6.398440954585e-01
6.418391151494e-01
6.435079438475e-01
6.448349805582e-01
6.459160343207e-01
6.467505268500e-01
6.474183990621e-01
6.479336305447e-01
6.483895730053e-01
6.486950613056e-01
6.489719555039e-01
6.491299777040e-01
6.492378729409e-01
6.493451869588e-01
6.494701818478e-01
6.494728730528e-01
6.495692154528e-01
6.496001590529e-01
6.495911243938e-01
6.496114225667e-01
6.495988382259e-01
6.496485098758e-01
6.496605585429e-01
6.496070799595e-01
6.496528332620e-01
6.496342320469e-01
6.496166720979e-01
6.496386060842e-01
6.496205748637e-01
6.496444676123e-01
6.496576648488e-01
6.496641001634e-01
6.496489846629e-01
6.496411857890e-01
6.496779478324e-01
6.496403215868e-01
6.496594877571e-01
6.498812417408e-01
6.496317418350e-01
6.496110480551e-01
SCALARS 7-Sn double 1
LOOKUP_TABLE default
0.000000000000e+00
0.000000000000e+00
0.000000000000e+00
0.000000000000e+00
0.000000000000e+00
0.000000000000e+00
0.000000000000e+00
0.000000000000e+00
0.000000000000e+00
0.000000000000e+00
0.000000000000e+00
0.000000000000e+00
0.000000000000e+00
0.000000000000e+00
0.000000000000e+00
0.000000000000e+00
0.000000000000e+00
0.000000000000e+00
0.000000000000e+00
0.000000000000e+00
0.000000000000e+00
0.000000000000e+00
0.000000000000e+00
0.000000000000e+00
0.000000000000e+00
0.000000000000e+00
0.000000000000e+00
0.000000000000e+00
0.000000000000e+00
0.000000000000e+00
0.000000000000e+00
0.000000000000e+00
0.000000000000e+00
0.000000000000e+00
0.000000000000e+00
0.000000000000e+00
0.000000000000e+00
0.000000000000e+00
0.000000000000e+00
0.000000000000e+00
0.000000000000e+00
0.000000000000e+00
0.000000000000e+00
0.000000000000e+00
0.000000000000e+00
0.000000000000e+00
0.000000000000e+00
0.000000000000e+00
0.000000000000e+00
0.000000000000e+00
0.000000000000e+00
0.000000000000e+00
0.000000000000e+00
0.000000000000e+00
0.000000000000e+00
0.000000000000e+00
0.000000000000e+00
0.000000000000e+00
0.000000000000e+00
0.000000000000e+00
0.000000000000e+00
0.000000000000e+00
0.000000000000e+00
0.000000000000e+00
0.000000000000e+00
0.000000000000e+00
0.000000000000e+00
0.000000000000e+00
0.000000000000e+00
0.000000000000e+00
0.000000000000e+00
0.000000000000e+00
0.000000000000e+00
0.000000000000e+00
0.000000000000e+00
0.000000000000e+00
0.000000000000e+00
0.000000000000e+00
0.000000000000e+00
0.000000000000e+00
0.000000000000e+00
0.000000000000e+00
0.000000000000e+00
0.000000000000e+00
0.000000000000e+00
0.000000000000e+00
0.000000000000e+00
0.000000000000e+00
0.000000000000e+00
0.000000000000e+00
0.000000000000e+00
0.000000000000e+00
0.000000000000e+00
0.000000000000e+00
0.000000000000e+00
0.000000000000e+00
0.000000000000e+00
0.000000000000e+00
0.000000000000e+00
0.000000000000e+00
0.000000000000e+00
SCALARS 8-Zz double 1
LOOKUP_TABLE default
1.035722930241e-15
-4.890932142798e-17
1.170825742981e-15
-1.144733971014e-14
-5.267640670075e-17
5.779367809637e-15
-3.332528325409e-15
-1.153552115147e-16
-1.100567689150e-16
-1.901701207400e-16
-8.489921881115e-16
-2.738372193784e-16
2.385615326814e-16
3.470794463277e-16
3.461175067958e-16
-1.141972931054e-17
6.038880590117e-16
2.638153093144e-16
-1.007446174115e-16
5.118186976884e-16
-1.019510826905e-16
-9.502298038092e-16
1.077153984082e-16
1.480040897004e-16
-2.526892491643e-16
2.452554264658e-17
2.288922484685e-17
-2.088328909058e-16
5.686335770092e-16
2.838846512840e-16
4.675032549014e-16
-4.510607813606e-16
-4.978182697256e-16
2.138887763458e-16
6.787956970127e-16
7.716426824518e-16
2.626820733815e-16
-3.312625367379e-16
5.660346603335e-16
-1.346587979640e-16
1.290916555886e-16
-3.234584052242e-16
1.319189615064e-16
3.476408151713e-16
-2.500008046334e-16
-2.923113650322e-17
2.859319857172e-16
-2.355197257179e-16
-5.967671588057e-17
-1.886040148681e-17
-9.323195451130e-17
2.306920700907e-16
-1.167807621712e-16
1.224215617127e-17
6.951863060832e-17
8.996188753402e-18
3.455221001421e-17
6.021672316882e-18
6.074754214674e-18
1.933645777088e-17
-4.251572005630e-17
2.256887173953e-18
5.086173719819e-17
-2.625365635873e-18
7.477942595979e-19
-1.454979053470e-17
3.954356261682e-17
3.863648926508e-17
7.622749467306e-18
-3.845104731707e-18
1.480342858702e-17
-1.518151803220e-17
-3.110031490344e-17
-2.893480019678e-17
1.287490577057e-17
-8.486395208675e-18
-3.886823894732e-17
-3.432770172399e-17
-1.686334586347e-17
-9.952721813131e-18
1.080435032051e-18
1.011661272491e-17
-3.488611367869e-17
-2.746088631936e-17
-4.063504699983e-17
4.563660033803e-17
-1.978060927675e-17
1.541780472451e-17
-1.665736323425e-17
-3.444080970683e-17
1.320596768486e-17
-9.587784097637e-18
7.584045127275e-18
3.388685789414e-17
1.832832345054e-17
3.316970524662e-17
-2.354284888339e-17
-6.503885989608e-18
5.136632738677e-17
-1.004147301311e-17
-5.594147601815e-18
SCALARS C double 1
LOOKUP_TABLE default
 3.190559220784e-06
 8.748042607697e-06
 1.949574095472e-05
 3.910685157178e-05
 7.359488887169e-05
 1.327373884179e-04
 2.323568680000e-04
 3.979727625451e-04
 6.705833713762e-04
 1.115606901961e-03
 1.836649994348e-03
 2.999069273109e-03
 4.880253545326e-03
 7.970900568598e-03
 1.302310247793e-02
 2.063318764524e-02
 3.079841977947e-02
 9.697742050583e-02
 1.185667929207e-01
 1.216506047637e-01
 1.217986467035e-01
 1.214709273594e-01
 1.209543479430e-01
 1.203938830620e-01
 1.196657498538e-01
 1.188756163510e-01
 1.178878283534e-01
 1.168616803217e-01
 1.156464553765e-01
 1.143724848165e-01
 1.129145934095e-01
 1.115168862405e-01
 1.099206321932e-01
 1.083391909042e-01
 1.068424318901e-01
 1.052823482561e-01
 1.039199515388e-01
 1.026385751930e-01
 1.006402663212e-01
 1.001653579655e-01
 1.006777531882e-01
 1.011560921761e-01
 1.016412865418e-01
 1.020645266528e-01
 1.025725754559e-01
 1.030284844472e-01
 1.035214488394e-01
 1.040226122089e-01
 1.045014731922e-01
 1.049335556808e-01
 1.054064426572e-01
 1.057722016667e-01
 1.062786366905e-01
 1.065333685141e-01
 1.069009927761e-01
 1.071846638820e-01
 1.074556315128e-01
 1.076569903043e-01
 1.078297089220e-01
 1.080563545601e-01
 1.081058280144e-01
 1.082676169235e-01
 1.083441861177e-01
 1.083674697257e-01
 1.084957296203e-01
 1.084478028123e-01
 1.087261628958e-01
 1.083073705591e-01
 1.087016357177e-01
 1.085898984098e-01
 1.085942100939e-01
 1.086440786863e-01
 1.086330776165e-01
 1.086151719498e-01
 1.086499866636e-01
 1.086071511499e-01
 1.086501863834e-01
 1.086523072400e-01
 1.086052361760e-01
 1.086479135158e-01
 1.086099252572e-01
 1.086992057122e-01
 1.085753715757e-01
 1.087596813430e-01
 1.085678490411e-01
 1.086326521544e-01
 1.085801332477e-01
 1.087363826373e-01
 1.085729842940e-01
 1.086720435617e-01
 1.086327415138e-01
 1.086195941150e-01
 1.086723411974e-01
 1.086460011266e-01
 1.085658205284e-01
 1.086964804052e-01
 1.086179100963e-01
 1.086606358319e-01
 1.086338719351e-01
 1.086340797094e-01
 1.086488926028e-01
SCALARS Ca double 1
LOOKUP_TABLE default
 3.190559220784e-06
 6.420779347524e-06
 1.264648409977e-05
 2.394651638053e-05
 4.368613271892e-05
 7.727406108298e-05
 1.333619977490e-04
 2.257463068116e-04
 3.763545756819e-04
 6.198348108386e-04
 1.010584673554e-03
 1.634706527847e-03
 2.635354702997e-03
 4.263613912946e-03
 6.902817047304e-03
 1.086027643428e-02
 1.614597813842e-02
 4.950316534192e-02
 6.064707307551e-02
 6.264008570995e-02
 6.329132385579e-02
 6.385936690907e-02
 6.452107639096e-02
 6.538768588649e-02
 6.644189904121e-02
 6.778752348610e-02
 6.941463794204e-02
 7.146831431444e-02
 7.394676919423e-02
 7.699758377106e-02
 8.065028865541e-02
 8.512993415719e-02
 9.042126445642e-02
 9.675495968819e-02
 1.043231547195e-01
 1.132767272273e-01
 1.236539132716e-01
 1.345355540498e-01
 1.640316964709e-01
 1.751636053250e-01
 1.709692116928e-01
 1.656478632635e-01
 1.604685242333e-01
 1.554015784468e-01
 1.506368766835e-01
 1.460727862818e-01
 1.418274146031e-01
 1.378944201983e-01
 1.342591447415e-01
 1.309063477523e-01
 1.279265741978e-01
 1.251690908206e-01
 1.228737794322e-01
 1.206359608651e-01
 1.188043500957e-01
 1.171634610545e-01
 1.157639429075e-01
 1.145270850291e-01
 1.134715312372e-01
 1.126576043389e-01
 1.118325460288e-01
 1.112651749307e-01
 1.107385844397e-01
 1.102668485153e-01
 1.099920098627e-01
 1.096183835056e-01
 1.096356125574e-01
 1.090090644485e-01
 1.092393009954e-01
 1.089990422583e-01
 1.089034139475e-01
 1.088761515774e-01
 1.088060676159e-01
 1.087432402510e-01
 1.087441526145e-01
 1.086759190521e-01
 1.087000663051e-01
 1.086882426646e-01
 1.086309511525e-01
 1.086661913816e-01
 1.086228300448e-01
 1.087082562123e-01
 1.085816768106e-01
 1.087640449719e-01
 1.085708490556e-01
 1.086347011418e-01
 1.085815235434e-01
 1.087373198513e-01
 1.085736119854e-01
 1.086724612395e-01
 1.086330176585e-01
 1.086197755182e-01
 1.086724596046e-01
 1.086460779245e-01
 1.085658700248e-01
 1.086965121063e-01
 1.086179302767e-01
 1.086606486134e-01
 1.086338800388e-01
 1.086340850432e-01
 1.086488969611e-01
SCALARS Cl double 1
LOOKUP_TABLE default
 1.276223688314e+00
 1.276206781170e+00
 1.276195468804e+00
 1.276175697221e+00
 1.276142845617e+00
 1.276090295676e+00
 1.276008757017e+00
 1.275885432957e+00
 1.275703011811e+00
 1.275438476271e+00
 1.275061733396e+00
 1.274534082180e+00
 1.273806554316e+00
 1.272818183169e+00
 1.271494265675e+00
 1.269744710981e+00
 1.267462720873e+00
 1.264517409976e+00
 1.260775401935e+00
 1.256074858075e+00
 1.250235833847e+00
 1.243065051190e+00
 1.234357598819e+00
 1.223900904586e+00
 1.211480111811e+00
 1.196884409513e+00
 1.179914369079e+00
 1.160389796468e+00
 1.138158047673e+00
 1.113102161179e+00
 1.085148656546e+00
 1.054274303743e+00
 1.020511734856e+00
 9.839531436654e-01
 9.447521307274e-01
 9.031232381572e-01
 8.593390741379e-01
 8.137251910369e-01
 7.666523816432e-01
 7.185285443326e-01
 6.697870756891e-01
 6.208745961703e-01
 5.722395063501e-01
 5.243195825119e-01
 4.775303391682e-01
 4.322545839860e-01
 3.888334493030e-01
 3.475593379934e-01
 3.086709175357e-01
 2.723502875287e-01
 2.387222857474e-01
 2.078558133770e-01
 1.797669156978e-01
 1.544233922838e-01
 1.317505009053e-01
 1.116375065132e-01
 9.394461616460e-02
 7.851002909602e-02
 6.515677216315e-02
 5.369908626296e-02
 4.394817070454e-02
 3.571714524802e-02
 2.882517481876e-02
 2.310071337764e-02
 1.838390434457e-02
 1.452819076658e-02
 1.140121481871e-02
 8.885117122237e-03
 6.876328744215e-03
 5.284985207922e-03
 4.034043830579e-03
 3.058217063630e-03
 2.302793040864e-03
 1.722415505539e-03
 1.279876625629e-03
 9.449632694072e-04
 6.933851708932e-04
 5.058030527730e-04
 3.669654250903e-04
 2.649563395933e-04
 1.905508357965e-04
 1.366712273674e-04
 9.793517625655e-05
 7.028510180941e-05
 5.068829071413e-05
 3.689712341850e-05
 2.725969645427e-05
 2.057188940056e-05
 1.596310182532e-05
 1.280891074161e-05
 1.066500755402e-05
 9.217716187457e-06
 8.247300378045e-06
 7.601009826308e-06
 7.173465942326e-06
 6.892522671808e-06
 6.709179851433e-06
 6.590503437366e-06
 6.514912675675e-06
 6.469872535496e-06
 6.453958155107e-06
SCALARS H double 1
LOOKUP_TABLE default
 3.542055048136e+04
 3.542024803702e+04
 3.542024804490e+04
 3.542024806314e+04
 3.542024810302e+04
 3.542024818163e+04
 3.542024832175e+04
 3.542024855711e+04
 3.542024894026e+04
 3.542024955808e+04
 3.542025055049e+04
 3.542025215439e+04
 3.542025479114e+04
 3.542025925294e+04
 3.542026689549e+04
 3.542027912595e+04
 3.542029652814e+04
 3.542014123070e+04
 3.542006563400e+04
 3.542005631883e+04
 3.542005785818e+04
 3.542006152078e+04
 3.542006638008e+04
 3.542007196316e+04
 3.542007882811e+04
 3.542008665929e+04
 3.542009603228e+04
 3.542010650764e+04
 3.542011870827e+04
 3.542013228665e+04
 3.542014779107e+04
 3.542016444273e+04
 3.542018323453e+04
 3.542020344022e+04
 3.542022478573e+04
 3.542024770514e+04
 3.542027143869e+04
 3.542029704627e+04
 3.542030899524e+04
 3.542032842400e+04
 3.542036144491e+04
 3.542039597409e+04
 3.542043042491e+04
 3.542046475060e+04
 3.542049804481e+04
 3.542053058750e+04
 3.542056173829e+04
 3.542059138126e+04
 3.542061944316e+04
 3.542064583883e+04
 3.542067010790e+04
 3.542069275853e+04
 3.542071273610e+04