# vtk DataFile Version 3.0
Unstructured Grid from OpenGeoSys
ASCII
DATASET UNSTRUCTURED_GRID
FIELD TimesAndCycles 2
TIME 1 1 double
8.000000000000e+03
CYLCE 1 1 long
80
POINTS 101 double
0.000000000000e+00 0.000000000000e+00 0.000000000000e+00
2.000000000000e-05 0.000000000000e+00 0.000000000000e+00
4.000000000000e-05 0.000000000000e+00 0.000000000000e+00
6.000000000000e-05 0.000000000000e+00 0.000000000000e+00
8.000000000000e-05 0.000000000000e+00 0.000000000000e+00
1.000000000000e-04 0.000000000000e+00 0.000000000000e+00
1.200000000000e-04 0.000000000000e+00 0.000000000000e+00
1.400000000000e-04 0.000000000000e+00 0.000000000000e+00
1.600000000000e-04 0.000000000000e+00 0.000000000000e+00
1.800000000000e-04 0.000000000000e+00 0.000000000000e+00
2.000000000000e-04 0.000000000000e+00 0.000000000000e+00
2.200000000000e-04 0.000000000000e+00 0.000000000000e+00
2.400000000000e-04 0.000000000000e+00 0.000000000000e+00
2.600000000000e-04 0.000000000000e+00 0.000000000000e+00
2.800000000000e-04 0.000000000000e+00 0.000000000000e+00
3.000000000000e-04 0.000000000000e+00 0.000000000000e+00
3.200000000000e-04 0.000000000000e+00 0.000000000000e+00
3.400000000000e-04 0.000000000000e+00 0.000000000000e+00
3.600000000000e-04 0.000000000000e+00 0.000000000000e+00
3.800000000000e-04 0.000000000000e+00 0.000000000000e+00
4.000000000000e-04 0.000000000000e+00 0.000000000000e+00
4.200000000000e-04 0.000000000000e+00 0.000000000000e+00
4.400000000000e-04 0.000000000000e+00 0.000000000000e+00
4.600000000000e-04 0.000000000000e+00 0.000000000000e+00
4.800000000000e-04 0.000000000000e+00 0.000000000000e+00
5.000000000000e-04 0.000000000000e+00 0.000000000000e+00
5.200000000000e-04 0.000000000000e+00 0.000000000000e+00
5.400000000000e-04 0.000000000000e+00 0.000000000000e+00
5.600000000000e-04 0.000000000000e+00 0.000000000000e+00
5.800000000000e-04 0.000000000000e+00 0.000000000000e+00
6.000000000000e-04 0.000000000000e+00 0.000000000000e+00
6.200000000000e-04 0.000000000000e+00 0.000000000000e+00
6.400000000000e-04 0.000000000000e+00 0.000000000000e+00
6.600000000000e-04 0.000000000000e+00 0.000000000000e+00
6.800000000000e-04 0.000000000000e+00 0.000000000000e+00
7.000000000000e-04 0.000000000000e+00 0.000000000000e+00
7.200000000000e-04 0.000000000000e+00 0.000000000000e+00
7.400000000000e-04 0.000000000000e+00 0.000000000000e+00
7.600000000000e-04 0.000000000000e+00 0.000000000000e+00
7.800000000000e-04 0.000000000000e+00 0.000000000000e+00
8.000000000000e-04 0.000000000000e+00 0.000000000000e+00
8.200000000000e-04 0.000000000000e+00 0.000000000000e+00
8.400000000000e-04 0.000000000000e+00 0.000000000000e+00
8.600000000000e-04 0.000000000000e+00 0.000000000000e+00
8.800000000000e-04 0.000000000000e+00 0.000000000000e+00
9.000000000000e-04 0.000000000000e+00 0.000000000000e+00
9.200000000000e-04 0.000000000000e+00 0.000000000000e+00
9.400000000000e-04 0.000000000000e+00 0.000000000000e+00
9.600000000000e-04 0.000000000000e+00 0.000000000000e+00
9.800000000000e-04 0.000000000000e+00 0.000000000000e+00
1.000000000000e-03 0.000000000000e+00 0.000000000000e+00
1.020000000000e-03 0.000000000000e+00 0.000000000000e+00
1.040000000000e-03 0.000000000000e+00 0.000000000000e+00
1.060000000000e-03 0.000000000000e+00 0.000000000000e+00
1.080000000000e-03 0.000000000000e+00 0.000000000000e+00
1.100000000000e-03 0.000000000000e+00 0.000000000000e+00
1.120000000000e-03 0.000000000000e+00 0.000000000000e+00
1.140000000000e-03 0.000000000000e+00 0.000000000000e+00
1.160000000000e-03 0.000000000000e+00 0.000000000000e+00
1.180000000000e-03 0.000000000000e+00 0.000000000000e+00
1.200000000000e-03 0.000000000000e+00 0.000000000000e+00
1.220000000000e-03 0.000000000000e+00 0.000000000000e+00
1.240000000000e-03 0.000000000000e+00 0.000000000000e+00
1.260000000000e-03 0.000000000000e+00 0.000000000000e+00
1.280000000000e-03 0.000000000000e+00 0.000000000000e+00
1.300000000000e-03 0.000000000000e+00 0.000000000000e+00
1.320000000000e-03 0.000000000000e+00 0.000000000000e+00
1.340000000000e-03 0.000000000000e+00 0.000000000000e+00
1.360000000000e-03 0.000000000000e+00 0.000000000000e+00
1.380000000000e-03 0.000000000000e+00 0.000000000000e+00
1.400000000000e-03 0.000000000000e+00 0.000000000000e+00
1.420000000000e-03 0.000000000000e+00 0.000000000000e+00
1.440000000000e-03 0.000000000000e+00 0.000000000000e+00
1.460000000000e-03 0.000000000000e+00 0.000000000000e+00
1.480000000000e-03 0.000000000000e+00 0.000000000000e+00
1.500000000000e-03 0.000000000000e+00 0.000000000000e+00
1.520000000000e-03 0.000000000000e+00 0.000000000000e+00
1.540000000000e-03 0.000000000000e+00 0.000000000000e+00
1.560000000000e-03 0.000000000000e+00 0.000000000000e+00
1.580000000000e-03 0.000000000000e+00 0.000000000000e+00
1.600000000000e-03 0.000000000000e+00 0.000000000000e+00
1.620000000000e-03 0.000000000000e+00 0.000000000000e+00
1.640000000000e-03 0.000000000000e+00 0.000000000000e+00
1.660000000000e-03 0.000000000000e+00 0.000000000000e+00
1.680000000000e-03 0.000000000000e+00 0.000000000000e+00
1.700000000000e-03 0.000000000000e+00 0.000000000000e+00
1.720000000000e-03 0.000000000000e+00 0.000000000000e+00
1.740000000000e-03 0.000000000000e+00 0.000000000000e+00
1.760000000000e-03 0.000000000000e+00 0.000000000000e+00
1.780000000000e-03 0.000000000000e+00 0.000000000000e+00
1.800000000000e-03 0.000000000000e+00 0.000000000000e+00
1.820000000000e-03 0.000000000000e+00 0.000000000000e+00
1.840000000000e-03 0.000000000000e+00 0.000000000000e+00
1.860000000000e-03 0.000000000000e+00 0.000000000000e+00
1.880000000000e-03 0.000000000000e+00 0.000000000000e+00
1.900000000000e-03 0.000000000000e+00 0.000000000000e+00
1.920000000000e-03 0.000000000000e+00 0.000000000000e+00
1.940000000000e-03 0.000000000000e+00 0.000000000000e+00
1.960000000000e-03 0.000000000000e+00 0.000000000000e+00
1.980000000000e-03 0.000000000000e+00 0.000000000000e+00
2.000000000000e-03 0.000000000000e+00 0.000000000000e+00
CELLS 100 300
2 0 1
2 1 2
2 2 3
2 3 4
2 4 5
2 5 6
2 6 7
2 7 8
2 8 9
2 9 10
2 10 11
2 11 12
2 12 13
2 13 14
2 14 15
2 15 16
2 16 17
2 17 18
2 18 19
2 19 20
2 20 21
2 21 22
2 22 23
2 23 24
2 24 25
2 25 26
2 26 27
2 27 28
2 28 29
2 29 30
2 30 31
2 31 32
2 32 33
2 33 34
2 34 35
2 35 36
2 36 37
2 37 38
2 38 39
2 39 40
2 40 41
2 41 42
2 42 43
2 43 44
2 44 45
2 45 46
2 46 47
2 47 48
2 48 49
2 49 50
2 50 51
2 51 52
2 52 53
2 53 54
2 54 55
2 55 56
2 56 57
2 57 58
2 58 59
2 59 60
2 60 61
2 61 62
2 62 63
2 63 64
2 64 65
2 65 66
2 66 67
2 67 68
2 68 69
2 69 70
2 70 71
2 71 72
2 72 73
2 73 74
2 74 75
2 75 76
2 76 77
2 77 78
2 78 79
2 79 80
2 80 81
2 81 82
2 82 83
2 83 84
2 84 85
2 85 86
2 86 87
2 87 88
2 88 89
2 89 90
2 90 91
2 91 92
2 92 93
2 93 94
2 94 95
2 95 96
2 96 97
2 97 98
2 98 99
2 99 100

CELL_TYPES 100
3
3
3
3
3
3
3
3
3
3
3
3
3
3
3
3
3
3
3
3
3
3
3
3
3
3
3
3
3
3
3
3
3
3
3
3
3
3
3
3
3
3
3
3
3
3
3
3
3
3
3
3
3
3
3
3
3
3
3
3
3
3
3
3
3
3
3
3
3
3
3
3
3
3
3
3
3
3
3
3
3
3
3
3
3
3
3
3
3
3
3
3
3
3
3
3
3
3
3
3

POINT_DATA 101
SCALARS HEAD double 1
LOOKUP_TABLE default
1.000000000000e+01
1.000000000000e+01
1.000000000000e+01
1.000000000000e+01
1.000000000000e+01
1.000000000000e+01
1.000000000000e+01
1.000000000000e+01
1.000000000000e+01
1.000000000000e+01
1.000000000000e+01
1.000000000000e+01
1.000000000000e+01
1.000000000000e+01
1.000000000000e+01
1.000000000000e+01
1.000000000000e+01
1.000000000000e+01
1.000000000000e+01
1.000000000000e+01
1.000000000000e+01
1.000000000000e+01
1.000000000000e+01
1.000000000000e+01
1.000000000000e+01
1.000000000000e+01
1.000000000000e+01
1.000000000000e+01
1.000000000000e+01
1.000000000000e+01
1.000000000000e+01
1.000000000000e+01
1.000000000000e+01
1.000000000000e+01
1.000000000000e+01
1.000000000000e+01
1.000000000000e+01
1.000000000000e+01
1.000000000000e+01
1.000000000000e+01
1.000000000000e+01
1.000000000000e+01
1.000000000000e+01
1.000000000000e+01
1.000000000000e+01
1.000000000000e+01
1.000000000000e+01
1.000000000000e+01
1.000000000000e+01
1.000000000000e+01
1.000000000000e+01
1.000000000000e+01
1.000000000000e+01
1.000000000000e+01
1.000000000000e+01
1.000000000000e+01
1.000000000000e+01
1.000000000000e+01
1.000000000000e+01
1.000000000000e+01
1.000000000000e+01
1.000000000000e+01
1.000000000000e+01
1.000000000000e+01
1.000000000000e+01
1.000000000000e+01
1.000000000000e+01
1.000000000000e+01
1.000000000000e+01
1.000000000000e+01
1.000000000000e+01
1.000000000000e+01
1.000000000000e+01
1.000000000000e+01
1.000000000000e+01
1.000000000000e+01
1.000000000000e+01
1.000000000000e+01
1.000000000000e+01
1.000000000000e+01
1.000000000000e+01
1.000000000000e+01
1.000000000000e+01
1.000000000000e+01
1.000000000000e+01
1.000000000000e+01
1.000000000000e+01
1.000000000000e+01
1.000000000000e+01
1.000000000000e+01
1.000000000000e+01
1.000000000000e+01
1.000000000000e+01
1.000000000000e+01
1.000000000000e+01
1.000000000000e+01
1.000000000000e+01
1.000000000000e+01
1.000000000000e+01
1.000000000000e+01
1.000000000000e+01
SCALARS 1-Ael double 1
LOOKUP_TABLE default
1.385723010189e+00
1.390690976737e+00
1.383705619616e+00
1.376807418247e+00
1.369997908124e+00
1.363278425831e+00
1.356650128295e+00
1.350114050302e+00
1.343671030180e+00
1.337321691213e+00
1.331066571703e+00
1.324906044454e+00
1.318840354429e+00
1.312869620816e+00
1.306993818241e+00
1.301212793416e+00
1.295526322239e+00
1.289934092616e+00
1.284435651919e+00
1.279030508174e+00
1.273718047116e+00
1.268497637677e+00
1.263368552609e+00
1.258329970839e+00
1.253381078614e+00
1.248520919961e+00
1.243748564787e+00
1.239063037700e+00
1.234463334456e+00
1.229948422257e+00
1.225517174846e+00
1.221168536788e+00
1.216901320351e+00
1.212714321764e+00
1.208606413590e+00
1.204576435979e+00
1.200623227193e+00
1.196745551279e+00
1.192942193931e+00
1.189211953427e+00
1.185553631556e+00
1.181966037817e+00
1.178447981985e+00
1.174998245215e+00
1.171615629222e+00
1.168298984461e+00
1.165047102102e+00
1.161858824417e+00
1.158733012057e+00
1.155668482212e+00
1.152664087277e+00
1.149718740799e+00
1.146831354924e+00
1.144000804759e+00
1.141225996047e+00
1.138505889917e+00
1.135839436032e+00
1.133225595454e+00
1.130663373089e+00
1.128151732626e+00
1.125689659094e+00
1.123276176613e+00
1.120910340397e+00
1.118591232661e+00
1.116317948956e+00
1.114089581339e+00
1.111905197465e+00
1.109763880319e+00
1.107664783625e+00
1.105607097577e+00
1.103589971668e+00
1.101612602444e+00
1.099674198355e+00
1.097773975058e+00
1.095911158069e+00
1.094084977945e+00
1.092294705413e+00
1.090539599492e+00
1.088818966513e+00
1.087132117756e+00
1.085478333957e+00
1.083856950454e+00
1.082267355202e+00
1.080708888574e+00
1.079180901116e+00
1.077682783741e+00
1.076213927239e+00
1.074773741553e+00
1.073361654087e+00
1.071977089390e+00
1.070619488573e+00
1.069288315541e+00
1.067983028112e+00
1.066703102839e+00
1.065448035000e+00
1.064217314616e+00
1.063010455019e+00
1.061826977547e+00
1.060666411365e+00
1.059528297390e+00
1.057144875724e+00
SCALARS 2-Bel double 1
LOOKUP_TABLE default
6.142769898115e-01
6.093090224286e-01
6.162943781162e-01
6.231925781145e-01
6.300020869425e-01
6.367215680032e-01
6.433498643760e-01
6.498859412775e-01
6.563289603724e-01
6.626782983778e-01
6.689334169906e-01
6.750939434064e-01
6.811596326627e-01
6.871303655664e-01
6.930061674915e-01
6.987871917277e-01
7.044736623696e-01
7.100658915157e-01
7.155643317849e-01
7.209694751542e-01
7.262819358894e-01
7.315023450513e-01
7.366314298886e-01
7.416700114720e-01
7.466189035523e-01
7.514790621005e-01
7.562514172090e-01
7.609369442669e-01
7.655366475147e-01
7.700515597514e-01
7.744828072308e-01
7.788314453859e-01
7.830986619492e-01
7.872856606870e-01
7.913935690361e-01
7.954235468443e-01
7.993767558474e-01
8.032544319992e-01
8.070577896018e-01
8.107880303762e-01
8.144463525332e-01
8.180339465719e-01
8.215520027148e-01
8.250017398071e-01
8.283843561318e-01
8.317010012319e-01
8.349528839384e-01
8.381411619779e-01
8.412669746959e-01
8.443315049039e-01
8.473359002054e-01
8.502812470511e-01
8.531686332962e-01
8.559991838324e-01
8.587739929147e-01
8.614940994149e-01
8.641605536684e-01
8.667743946135e-01
8.693366173422e-01
8.718482581668e-01
8.743103320556e-01
8.767238148896e-01
8.790896514542e-01
8.814087595336e-01
8.836820435777e-01
8.859104115268e-01
8.880947957277e-01
8.902361131940e-01
8.923352102022e-01
8.943928965575e-01
8.964100227667e-01
8.983873922836e-01
9.003257966590e-01
9.022260202341e-01
9.040888374941e-01
9.059150178826e-01
9.077052906702e-01
9.094603968395e-01
9.111810300596e-01
9.128678790495e-01
9.145216630746e-01
9.161430467950e-01
9.177326422572e-01
9.192911090876e-01
9.208190967412e-01
9.223172143030e-01
9.237860709858e-01
9.252262568446e-01
9.266383444763e-01
9.280229093326e-01
9.293805103011e-01
9.307116834778e-01
9.320169710457e-01
9.332968964497e-01
9.345519644140e-01
9.357826849175e-01
9.369895446277e-01
9.381730222060e-01
9.393335884890e-01
9.404717025596e-01
9.428551242756e-01
SCALARS 3-H double 1
LOOKUP_TABLE default
1.994509163545e-04
1.995316925649e-04
1.994501066636e-04
1.994500969966e-04
1.995315055872e-04
1.995316508342e-04
1.995316677043e-04
1.995316040514e-04
1.994501066495e-04
1.994500989966e-04
1.995316019284e-04
1.994501120516e-04
1.995314866968e-04
1.995315642449e-04
1.995316589057e-04
1.995314781140e-04
1.994501460974e-04
1.995316977331e-04
1.995314891091e-04
1.994501354462e-04
1.995316496189e-04
1.995317058265e-04
1.995316931453e-04
1.994501307200e-04
1.995315405996e-04
1.994501373739e-04
1.995316374426e-04
1.994501452190e-04
1.995315260429e-04
1.994501434786e-04
1.995315268021e-04
1.994501242975e-04
1.995316834158e-04
1.994501576828e-04
1.995315036948e-04
1.995315177738e-04
1.995316335947e-04
1.994501516847e-04
1.994501560048e-04
1.995315874246e-04
1.995315278778e-04
1.994501631069e-04
1.994501774824e-04
1.995316222836e-04
1.995314632069e-04
1.994501308025e-04
1.995314498852e-04
1.995316329292e-04
1.994501558120e-04
1.995316418173e-04
1.994501506981e-04
1.994501730839e-04
1.995315020580e-04
1.995315496273e-04
1.994501450982e-04
1.994501678670e-04
1.994501535834e-04
1.995315407271e-04
1.994501589243e-04
1.995316015263e-04
1.994501606919e-04
1.994501631936e-04
1.994501712066e-04
1.995316235895e-04
1.994501601765e-04
1.995315364566e-04
1.994501585419e-04
1.994501628220e-04
1.994501689511e-04
1.995314582163e-04
1.995315804127e-04
1.995315442494e-04
1.995316104237e-04
1.995315557254e-04
1.995315974984e-04
1.995315446795e-04
1.995314306249e-04
1.995314239374e-04
1.995315583288e-04
1.994501761947e-04
1.995316205893e-04
1.994501761310e-04
1.995315261630e-04
1.995315451889e-04
1.994501567383e-04
1.995315804982e-04
1.995314799971e-04
1.994501642333e-04
1.995315322986e-04
1.995315834892e-04
1.994501528514e-04
1.994501960245e-04
1.994501618815e-04
1.994501557381e-04
1.994501594170e-04
1.994501590633e-04
1.995315057326e-04
1.994501906063e-04
1.995315708459e-04
1.995316021614e-04
1.994499886698e-04
SCALARS 4-Inrt double 1
LOOKUP_TABLE default
0.000000000000e+00
0.000000000000e+00
0.000000000000e+00
0.000000000000e+00
0.000000000000e+00
0.000000000000e+00
0.000000000000e+00
0.000000000000e+00
0.000000000000e+00
0.000000000000e+00
0.000000000000e+00
0.000000000000e+00
0.000000000000e+00
0.000000000000e+00
0.000000000000e+00
0.000000000000e+00
0.000000000000e+00
0.000000000000e+00
0.000000000000e+00
0.000000000000e+00
0.000000000000e+00
0.000000000000e+00
0.000000000000e+00
0.000000000000e+00
0.000000000000e+00
0.000000000000e+00
0.000000000000e+00
0.000000000000e+00
0.000000000000e+00
0.000000000000e+00
0.000000000000e+00
0.000000000000e+00
0.000000000000e+00
0.000000000000e+00
0.000000000000e+00
0.000000000000e+00
0.000000000000e+00
0.000000000000e+00
0.000000000000e+00
0.000000000000e+00
0.000000000000e+00
0.000000000000e+00
0.000000000000e+00
0.000000000000e+00
0.000000000000e+00
0.000000000000e+00
0.000000000000e+00
0.000000000000e+00
0.000000000000e+00
0.000000000000e+00
0.000000000000e+00
0.000000000000e+00
0.000000000000e+00
0.000000000000e+00
0.000000000000e+00
0.000000000000e+00
0.000000000000e+00
0.000000000000e+00
0.000000000000e+00
0.000000000000e+00
0.000000000000e+00
0.000000000000e+00
0.000000000000e+00
0.000000000000e+00
0.000000000000e+00
0.000000000000e+00
0.000000000000e+00
0.000000000000e+00
0.000000000000e+00
0.000000000000e+00
0.000000000000e+00
0.000000000000e+00
0.000000000000e+00
0.000000000000e+00
0.000000000000e+00
0.000000000000e+00
0.000000000000e+00
0.000000000000e+00
0.000000000000e+00
0.000000000000e+00
0.000000000000e+00
0.000000000000e+00
0.000000000000e+00
0.000000000000e+00
0.000000000000e+00
0.000000000000e+00
0.000000000000e+00
0.000000000000e+00
0.000000000000e+00
0.000000000000e+00
0.000000000000e+00
0.000000000000e+00
0.000000000000e+00
0.000000000000e+00
0.000000000000e+00
0.000000000000e+00
0.000000000000e+00
0.000000000000e+00
0.000000000000e+00
0.000000000000e+00
0.000000000000e+00
SCALARS 5-O double 1
LOOKUP_TABLE default
1.009972554693e-02
1.007443657415e-02
1.003085375703e-02
9.989420060079e-03
9.950142810042e-03
9.912940167624e-03
9.877844632455e-03
9.844841873570e-03
9.813870093547e-03
9.784983989298e-03
9.758151636911e-03
9.733214244996e-03
9.710293813187e-03
9.689223911174e-03
9.669997211019e-03
9.652562848987e-03
9.636827269385e-03
9.622857474217e-03
9.610474120682e-03
9.599619354320e-03
9.590355948913e-03
9.582501724616e-03
9.576036875054e-03
9.570859981865e-03
9.567032569911e-03
9.564331220785e-03
9.562858663262e-03
9.562392523175e-03
9.563036834986e-03
9.564570908077e-03
9.567100586630e-03
9.570407223156e-03
9.574599128802e-03
9.579459973795e-03
9.585100797327e-03
9.591348892458e-03
9.598195841038e-03
9.605553359655e-03
9.613456977343e-03
9.621862236928e-03
9.630644874444e-03
9.639763632652e-03
9.649260262102e-03
9.659096829706e-03
9.669155445974e-03
9.679401310430e-03
9.689923235080e-03
9.700567606602e-03
9.711303897759e-03
9.722225964107e-03
9.733143648797e-03
9.744153387750e-03
9.755230718487e-03
9.766271548505e-03
9.777254206133e-03
9.788239932876e-03
9.799168918726e-03
9.810064233960e-03
9.820787133848e-03
9.831485271981e-03
9.841981626892e-03
9.852385229027e-03
9.862643247077e-03
9.872785256216e-03
9.882678837895e-03
9.892477724408e-03
9.902011013102e-03
9.911393444753e-03
9.920577774307e-03
9.929598621491e-03
9.938369765695e-03
9.946927283097e-03
9.955267646297e-03
9.963387664545e-03
9.971285040508e-03
9.978957903086e-03
9.986404896331e-03
9.993625379683e-03
1.000061899947e-02
1.000734505300e-02
1.001392645909e-02
1.002020126638e-02
1.002633355349e-02
1.003220300564e-02
1.003781171092e-02
1.004328404566e-02
1.004850050624e-02
1.005346412143e-02
1.005829994519e-02
1.006288928210e-02
1.006723553616e-02
1.007142393804e-02
1.007541759687e-02
1.007922052068e-02
1.008283684700e-02
1.008627081305e-02
1.008956741099e-02
1.009260903288e-02
1.009556292218e-02
1.009831157177e-02
1.009972507400e-02
SCALARS 6-Zz double 1
LOOKUP_TABLE default
0.000000000000e+00
0.000000000000e+00
0.000000000000e+00
0.000000000000e+00
0.000000000000e+00
0.000000000000e+00
0.000000000000e+00
0.000000000000e+00
0.000000000000e+00
0.000000000000e+00
0.000000000000e+00
0.000000000000e+00
0.000000000000e+00
0.000000000000e+00
0.000000000000e+00
0.000000000000e+00
0.000000000000e+00
0.000000000000e+00
0.000000000000e+00
0.000000000000e+00
0.000000000000e+00
0.000000000000e+00
0.000000000000e+00
0.000000000000e+00
0.000000000000e+00
0.000000000000e+00
0.000000000000e+00
0.000000000000e+00
0.000000000000e+00
0.000000000000e+00
0.000000000000e+00
0.000000000000e+00
0.000000000000e+00
0.000000000000e+00
0.000000000000e+00
0.000000000000e+00
0.000000000000e+00
0.000000000000e+00
0.000000000000e+00
0.000000000000e+00
0.000000000000e+00
0.000000000000e+00
0.000000000000e+00
0.000000000000e+00
0.000000000000e+00
0.000000000000e+00
0.000000000000e+00
0.000000000000e+00
0.000000000000e+00
0.000000000000e+00
0.000000000000e+00
0.000000000000e+00
0.000000000000e+00
0.000000000000e+00
0.000000000000e+00
0.000000000000e+00
0.000000000000e+00
0.000000000000e+00
0.000000000000e+00
0.000000000000e+00
0.000000000000e+00
0.000000000000e+00
0.000000000000e+00
0.000000000000e+00
0.000000000000e+00
0.000000000000e+00
0.000000000000e+00
0.000000000000e+00
0.000000000000e+00
0.000000000000e+00
0.000000000000e+00
0.000000000000e+00
0.000000000000e+00
0.000000000000e+00
0.000000000000e+00
0.000000000000e+00
0.000000000000e+00
0.000000000000e+00
0.000000000000e+00
0.000000000000e+00
0.000000000000e+00
0.000000000000e+00
0.000000000000e+00
0.000000000000e+00
0.000000000000e+00
0.000000000000e+00
0.000000000000e+00
0.000000000000e+00
0.000000000000e+00
0.000000000000e+00
0.000000000000e+00
0.000000000000e+00
0.000000000000e+00
0.000000000000e+00
0.000000000000e+00
0.000000000000e+00
0.000000000000e+00
0.000000000000e+00
0.000000000000e+00
0.000000000000e+00
0.000000000000e+00
SCALARS Ael double 1
LOOKUP_TABLE default
 1.385723038347e-03
 1.110961249124e-03
 1.175791921886e-03
 1.244630945947e-03
 1.317728424451e-03
 1.395350855259e-03
 1.477781059908e-03
 1.565321198044e-03
 1.658289344426e-03
 1.757026364999e-03
 1.861894205493e-03
 1.973276257937e-03
 2.091582244519e-03
 2.217245285758e-03
 2.350727771869e-03
 2.492519282884e-03
 2.643143853099e-03
 2.803154115543e-03
 2.973140520114e-03
 3.153730565750e-03
 3.345588573218e-03
 3.549427376065e-03
 3.765994518235e-03
 3.996095581476e-03
 4.240579211086e-03
 4.500349243550e-03
 4.776372209112e-03
 5.069666128394e-03
 5.381324385636e-03
 5.712497114544e-03
 6.064416230266e-03
 6.438391321434e-03
 6.835801464042e-03
 7.258134152873e-03
 7.706954493437e-03
 8.183936543574e-03
 8.690851162086e-03
 9.229583991193e-03
 9.802144551316e-03
 1.041066341918e-02
 1.105741136476e-02
 1.174479686877e-02
 1.247538597139e-02
 1.325189678090e-02
 1.407723604784e-02
 1.495448009741e-02
 1.588689917555e-02
 1.687798686728e-02
 1.793143467753e-02
 1.905118102409e-02
 2.024141163655e-02
 2.150658504548e-02
 2.285142051397e-02
 2.428094945252e-02
 2.580052051855e-02
 2.741582894772e-02
 2.913290375205e-02
 3.095818939631e-02
 3.289851019490e-02
 3.496112491218e-02
 3.715376642374e-02
 3.948464699786e-02
 4.196250738328e-02
 4.459663053181e-02
 4.739689285745e-02
 5.037377964186e-02
 5.353844321487e-02
 5.690275402187e-02
 6.047935191376e-02
 6.428164122905e-02
 6.832386363742e-02
 7.262122768619e-02
 7.718980901534e-02
 8.204680078351e-02
 8.721037301104e-02
 9.269996204298e-02
 9.853613638967e-02
 1.047408251583e-01
 1.113373378700e-01
 1.183504249324e-01
 1.258063929499e-01
 1.337333234810e-01
 1.421609619394e-01
 1.511209231430e-01
 1.606469071141e-01
 1.707747017745e-01
 1.815423458826e-01
 1.929903316484e-01
 2.051616611653e-01
 2.181020735878e-01
 2.318602215980e-01
 2.464878327258e-01
 2.620398425614e-01
 2.785747933804e-01
 2.961547920117e-01
 3.148459602958e-01
 3.347185939375e-01
 3.558474038337e-01
 3.783118629657e-01
 4.021964493775e-01
 4.496369495925e-01
SCALARS Bel double 1
LOOKUP_TABLE default
 6.142770022938e-04
 1.008399576346e-03
 1.070345064268e-03
 1.136163989286e-03
 1.206102130549e-03
 1.280420206904e-03
 1.359395930587e-03
 1.443323100917e-03
 1.532517268867e-03
 1.627311244480e-03
 1.728059342624e-03
 1.835139711271e-03
 1.948952313045e-03
 2.069924903787e-03
 2.198510400881e-03
 2.335192407854e-03
 2.480481612760e-03
 2.634925538372e-03
 2.799103465327e-03
 2.973631603369e-03
 3.159168000748e-03
 3.356405831870e-03
 3.566092493484e-03
 3.789011906204e-03
 4.026005474081e-03
 4.277966321123e-03
 4.545838555912e-03
 4.830635670518e-03
 5.133424318331e-03
 5.455351063770e-03
 5.797626000742e-03
 6.161536058924e-03
 6.548462970389e-03
 6.959854737954e-03
 7.397267501446e-03
 7.862345954382e-03
 8.356847998075e-03
 8.882640053465e-03
 9.441702102276e-03
 1.003614554002e-02
 1.066821002133e-02
 1.134028293733e-02
 1.205489763696e-02
 1.281475813309e-02
 1.362272295944e-02
 1.448184596256e-02
 1.539537505573e-02
 1.636674736338e-02
 1.739964075790e-02
 1.849795263756e-02
 1.966582905758e-02
 2.090767063975e-02
 2.222817802817e-02
 2.363233597526e-02
 2.512544599090e-02
 2.671313714973e-02
 2.840142157303e-02
 3.019665813476e-02
 3.210563631950e-02
 3.413557293362e-02
 3.629412700297e-02
 3.858945250566e-02
 4.103021097071e-02
 4.362562334785e-02
 4.638548849440e-02
 4.932024193124e-02
 5.244097651782e-02
 5.575947523630e-02
 5.928824905793e-02
 6.304063666598e-02
 6.703083241725e-02
 7.127386398415e-02
 7.578580611427e-02
 8.058365139646e-02
 8.568557978015e-02
 9.111080613812e-02
 9.687986012282e-02
 1.030145126591e-01
 1.095379208599e-01
 1.164747427175e-01
 1.238512080437e-01
 1.316950977600e-01
 1.400360655812e-01
 1.489056563839e-01
 1.583373285015e-01
 1.683667041999e-01
 1.790316759392e-01
 1.903724900036e-01
 2.024319944370e-01
 2.152557355031e-01
 2.288921253496e-01
 2.433926466058e-01
 2.588121082564e-01
 2.752086607375e-01
 2.926442779860e-01
 3.111847747496e-01
 3.309001451207e-01
 3.518648500873e-01
 3.741580330046e-01
 3.978638745873e-01
 4.010259253223e-01
SCALARS H double 1
LOOKUP_TABLE default
 1.106904901085e+02
 1.452887609865e+01
 1.520952977235e+01
 1.593156043409e+01
 1.669734963961e+01
 1.750961323346e+01
 1.837109619468e+01
 1.928518545217e+01
 2.025450365229e+01
 2.128269570913e+01
 2.237351541043e+01
 2.353049720445e+01
 2.475812150675e+01
 2.606031972154e+01
 2.744194471199e+01
 2.890745117810e+01
 3.046287427330e+01
 3.211299288182e+01
 3.386397936048e+01
 3.572233318831e+01
 3.769386755996e+01
 3.978740476172e+01
 4.200815144052e+01
 4.436611123587e+01
 4.686867527356e+01
 4.952434887868e+01
 5.234468114618e+01
 5.533769977367e+01
 5.851699290969e+01
 6.189131599752e+01
 6.547425877593e+01
 6.928029531469e+01
 7.331821896884e+01
 7.760806273377e+01
 8.216286948889e+01
 8.700175516278e+01
 9.214030800025e+01
 9.759659655519e+01
 1.033924936527e+02
 1.095479554349e+02
 1.160874208700e+02
 1.230335158876e+02
 1.304135151433e+02
 1.382502104029e+02
 1.465783562546e+02
 1.554260747447e+02
 1.648227747215e+02
 1.748108213120e+02
 1.854199247359e+02
 1.966908039126e+02
 2.086656899816e+02
 2.213955483179e+02
 2.349192120385e+02
 2.492879809643e+02
 2.645558478807e+02
 2.807869591504e+02
 2.980287570491e+02
 3.163591192980e+02
 3.358385412971e+02
 3.565334095736e+02
 3.785271778858e+02
 4.019004918490e+02
 4.267473786489e+02
 4.531585233164e+02
 4.812363016669e+02
 5.110747121691e+02
 5.427769376594e+02
 5.764650574972e+02
 6.122881983530e+02
 6.503700992452e+02
 6.908306411411e+02
 7.338673471249e+02
 7.795887255496e+02
 8.282199624407e+02
 8.798773074819e+02
 9.348168148584e+02
 9.931990335404e+02
 1.055264051525e+03
 1.121260193555e+03
 1.191410132524e+03
 1.265936978614e+03
 1.345220609524e+03
 1.429520923569e+03
 1.519095104203e+03
 1.614331085878e+03
 1.715582335855e+03
 1.823205337529e+03
 1.937646557985e+03
 2.059305660690e+03
 2.188630793929e+03
 2.326128565488e+03
 2.472333586755e+03
 2.627710862096e+03
 2.792964995014e+03
 2.968618603291e+03
 3.155367172282e+03
 3.353935161642e+03
 3.565036119939e+03
 3.789489554459e+03
 4.028124757888e+03
 4.708014431404e+04
SCALARS Inrt double 1
LOOKUP_TABLE default
 9.989999999797e-01
 9.989403195872e-01
 9.988769315068e-01
 9.988096025321e-01
 9.987380847221e-01
 9.986621144684e-01
 9.985814115041e-01
 9.984956778498e-01
 9.984045966925e-01
 9.983078311943e-01
 9.982050232248e-01
 9.980957920141e-01
 9.979797327198e-01
 9.978564149036e-01
 9.977253809119e-01
 9.975861441527e-01
 9.974381872650e-01
 9.972809601707e-01
 9.971138780048e-01
 9.969363189128e-01
 9.967476217101e-01
 9.965470833929e-01
 9.963339564908e-01
 9.961074462526e-01
 9.958667076536e-01
 9.956108422137e-01
 9.953388946132e-01
 9.950498490960e-01
 9.947426256433e-01
 9.944160759058e-01
 9.940689788792e-01
 9.937000363042e-01
 9.933078677769e-01
 9.928910055484e-01
 9.924478889961e-01
 9.919768587443e-01
 9.914761504129e-01
 9.909438879703e-01
 9.903780766655e-01
 9.897765955124e-01
 9.891371892986e-01
 9.884574600883e-01
 9.877348581868e-01
 9.869666725337e-01
 9.861500204867e-01
 9.852818369600e-01
 9.843588628740e-01
 9.833776328739e-01
 9.823344622712e-01
 9.812254331577e-01
 9.800463796411e-01
 9.787928721452e-01
 9.774602007164e-01
 9.760433572733e-01
 9.745370167321e-01
 9.729355169377e-01
 9.712328373236e-01
 9.694225762203e-01
 9.674979267283e-01
 9.654516510623e-01
 9.632760532715e-01
 9.609629502328e-01
 9.585036408073e-01
 9.558888730442e-01
 9.531088093078e-01
 9.501529891970e-01
 9.470102901170e-01
 9.436688853540e-01
 9.401161994971e-01
 9.363388610353e-01
 9.323226519553e-01
 9.280524541474e-01
 9.235121924176e-01
 9.186847738924e-01
 9.135520235868e-01
 9.080946158918e-01
 9.022920017262e-01
 8.961223310738e-01
 8.895623706177e-01
 8.825874161578e-01
 8.751711994862e-01
 8.672857893628e-01
 8.589014862233e-01
 8.499867102205e-01
 8.405078821765e-01
 8.304292969976e-01
 8.197129890745e-01
 8.083185891600e-01
 7.962031721855e-01
 7.833210954419e-01
 7.696238265144e-01
 7.550597603232e-01
 7.395740245811e-01
 7.231082729321e-01
 7.056004649933e-01
 6.869846324706e-01
 6.671906304655e-01
 6.461438730355e-01
 6.237650520123e-01
 5.999698380167e-01
 5.746685625425e-01
SCALARS O double 1
LOOKUP_TABLE default
 5.534525505425e+01
 7.264439358568e+00
 7.604766250772e+00
 7.965781640460e+00
 8.348676305704e+00
 8.754808169031e+00
 9.185549720191e+00
 9.642594423932e+00
 1.012725360367e+01
 1.064134971677e+01
 1.118675965743e+01
 1.176525065011e+01
 1.237906290296e+01
 1.303016211846e+01
 1.372097472861e+01
 1.445372808382e+01
 1.523143976133e+01
 1.605649920370e+01
 1.693199258989e+01
 1.786116965999e+01
 1.884693701185e+01
 1.989370578941e+01
 2.100407931660e+01
 2.218305941408e+01
 2.343434164542e+01
 2.476217867392e+01
 2.617234504811e+01
 2.766885461752e+01
 2.925850145764e+01
 3.094566329092e+01
 3.273713498796e+01
 3.464015358497e+01
 3.665911576028e+01
 3.880403801338e+01
 4.108144178518e+01
 4.350088504169e+01
 4.607016190675e+01
 4.879830665895e+01
 5.169625571282e+01
 5.477398714125e+01
 5.804372043059e+01
 6.151676854764e+01
 6.520676882272e+01
 6.912511714084e+01
 7.328919079928e+01
 7.771305082366e+01
 8.241140164090e+01
 8.740542581832e+01
 9.270997846850e+01
 9.834541905490e+01