# vtk DataFile Version 3.0
Unstructured Grid from OpenGeoSys
ASCII
DATASET UNSTRUCTURED_GRID
FIELD TimesAndCycles 2
TIME 1 1 double
2.000000000000e+03
CYLCE 1 1 long
20
POINTS 101 double
0.000000000000e+00 0.000000000000e+00 0.000000000000e+00
2.000000000000e-05 0.000000000000e+00 0.000000000000e+00
4.000000000000e-05 0.000000000000e+00 0.000000000000e+00
6.000000000000e-05 0.000000000000e+00 0.000000000000e+00
8.000000000000e-05 0.000000000000e+00 0.000000000000e+00
1.000000000000e-04 0.000000000000e+00 0.000000000000e+00
1.200000000000e-04 0.000000000000e+00 0.000000000000e+00
1.400000000000e-04 0.000000000000e+00 0.000000000000e+00
1.600000000000e-04 0.000000000000e+00 0.000000000000e+00
1.800000000000e-04 0.000000000000e+00 0.000000000000e+00
2.000000000000e-04 0.000000000000e+00 0.000000000000e+00
2.200000000000e-04 0.000000000000e+00 0.000000000000e+00
2.400000000000e-04 0.000000000000e+00 0.000000000000e+00
2.600000000000e-04 0.000000000000e+00 0.000000000000e+00
2.800000000000e-04 0.000000000000e+00 0.000000000000e+00
3.000000000000e-04 0.000000000000e+00 0.000000000000e+00
3.200000000000e-04 0.000000000000e+00 0.000000000000e+00
3.400000000000e-04 0.000000000000e+00 0.000000000000e+00
3.600000000000e-04 0.000000000000e+00 0.000000000000e+00
3.800000000000e-04 0.000000000000e+00 0.000000000000e+00
4.000000000000e-04 0.000000000000e+00 0.000000000000e+00
4.200000000000e-04 0.000000000000e+00 0.000000000000e+00
4.400000000000e-04 0.000000000000e+00 0.000000000000e+00
4.600000000000e-04 0.000000000000e+00 0.000000000000e+00
4.800000000000e-04 0.000000000000e+00 0.000000000000e+00
5.000000000000e-04 0.000000000000e+00 0.000000000000e+00
5.200000000000e-04 0.000000000000e+00 0.000000000000e+00
5.400000000000e-04 0.000000000000e+00 0.000000000000e+00
5.600000000000e-04 0.000000000000e+00 0.000000000000e+00
5.800000000000e-04 0.000000000000e+00 0.000000000000e+00
6.000000000000e-04 0.000000000000e+00 0.000000000000e+00
6.200000000000e-04 0.000000000000e+00 0.000000000000e+00
6.400000000000e-04 0.000000000000e+00 0.000000000000e+00
6.600000000000e-04 0.000000000000e+00 0.000000000000e+00
6.800000000000e-04 0.000000000000e+00 0.000000000000e+00
7.000000000000e-04 0.000000000000e+00 0.000000000000e+00
7.200000000000e-04 0.000000000000e+00 0.000000000000e+00
7.400000000000e-04 0.000000000000e+00 0.000000000000e+00
7.600000000000e-04 0.000000000000e+00 0.000000000000e+00
7.800000000000e-04 0.000000000000e+00 0.000000000000e+00
8.000000000000e-04 0.000000000000e+00 0.000000000000e+00
8.200000000000e-04 0.000000000000e+00 0.000000000000e+00
8.400000000000e-04 0.000000000000e+00 0.000000000000e+00
8.600000000000e-04 0.000000000000e+00 0.000000000000e+00
8.800000000000e-04 0.000000000000e+00 0.000000000000e+00
9.000000000000e-04 0.000000000000e+00 0.000000000000e+00
9.200000000000e-04 0.000000000000e+00 0.000000000000e+00
9.400000000000e-04 0.000000000000e+00 0.000000000000e+00
9.600000000000e-04 0.000000000000e+00 0.000000000000e+00
9.800000000000e-04 0.000000000000e+00 0.000000000000e+00
1.000000000000e-03 0.000000000000e+00 0.000000000000e+00
1.020000000000e-03 0.000000000000e+00 0.000000000000e+00
1.040000000000e-03 0.000000000000e+00 0.000000000000e+00
1.060000000000e-03 0.000000000000e+00 0.000000000000e+00
1.080000000000e-03 0.000000000000e+00 0.000000000000e+00
1.100000000000e-03 0.000000000000e+00 0.000000000000e+00
1.120000000000e-03 0.000000000000e+00 0.000000000000e+00
1.140000000000e-03 0.000000000000e+00 0.000000000000e+00
1.160000000000e-03 0.000000000000e+00 0.000000000000e+00
1.180000000000e-03 0.000000000000e+00 0.000000000000e+00
1.200000000000e-03 0.000000000000e+00 0.000000000000e+00
1.220000000000e-03 0.000000000000e+00 0.000000000000e+00
1.240000000000e-03 0.000000000000e+00 0.000000000000e+00
1.260000000000e-03 0.000000000000e+00 0.000000000000e+00
1.280000000000e-03 0.000000000000e+00 0.000000000000e+00
1.300000000000e-03 0.000000000000e+00 0.000000000000e+00
1.320000000000e-03 0.000000000000e+00 0.000000000000e+00
1.340000000000e-03 0.000000000000e+00 0.000000000000e+00
1.360000000000e-03 0.000000000000e+00 0.000000000000e+00
1.380000000000e-03 0.000000000000e+00 0.000000000000e+00
1.400000000000e-03 0.000000000000e+00 0.000000000000e+00
1.420000000000e-03 0.000000000000e+00 0.000000000000e+00
1.440000000000e-03 0.000000000000e+00 0.000000000000e+00
1.460000000000e-03 0.000000000000e+00 0.000000000000e+00
1.480000000000e-03 0.000000000000e+00 0.000000000000e+00
1.500000000000e-03 0.000000000000e+00 0.000000000000e+00
1.520000000000e-03 0.000000000000e+00 0.000000000000e+00
1.540000000000e-03 0.000000000000e+00 0.000000000000e+00
1.560000000000e-03 0.000000000000e+00 0.000000000000e+00
1.580000000000e-03 0.000000000000e+00 0.000000000000e+00
1.600000000000e-03 0.000000000000e+00 0.000000000000e+00
1.620000000000e-03 0.000000000000e+00 0.000000000000e+00
1.640000000000e-03 0.000000000000e+00 0.000000000000e+00
1.660000000000e-03 0.000000000000e+00 0.000000000000e+00
1.680000000000e-03 0.000000000000e+00 0.000000000000e+00
1.700000000000e-03 0.000000000000e+00 0.000000000000e+00
1.720000000000e-03 0.000000000000e+00 0.000000000000e+00
1.740000000000e-03 0.000000000000e+00 0.000000000000e+00
1.760000000000e-03 0.000000000000e+00 0.000000000000e+00
1.780000000000e-03 0.000000000000e+00 0.000000000000e+00
1.800000000000e-03 0.000000000000e+00 0.000000000000e+00
1.820000000000e-03 0.000000000000e+00 0.000000000000e+00
1.840000000000e-03 0.000000000000e+00 0.000000000000e+00
1.860000000000e-03 0.000000000000e+00 0.000000000000e+00
1.880000000000e-03 0.000000000000e+00 0.000000000000e+00
1.900000000000e-03 0.000000000000e+00 0.000000000000e+00
1.920000000000e-03 0.000000000000e+00 0.000000000000e+00
1.940000000000e-03 0.000000000000e+00 0.000000000000e+00
1.960000000000e-03 0.000000000000e+00 0.000000000000e+00
1.980000000000e-03 0.000000000000e+00 0.000000000000e+00
2.000000000000e-03 0.000000000000e+00 0.000000000000e+00
CELLS 100 300
2 0 1
2 1 2
2 2 3
2 3 4
2 4 5
2 5 6
2 6 7
2 7 8
2 8 9
2 9 10
2 10 11
2 11 12
2 12 13
2 13 14
2 14 15
2 15 16
2 16 17
2 17 18
2 18 19
2 19 20
2 20 21
2 21 22
2 22 23
2 23 24
2 24 25
2 25 26
2 26 27
2 27 28
2 28 29
2 29 30
2 30 31
2 31 32
2 32 33
2 33 34
2 34 35
2 35 36
2 36 37
2 37 38
2 38 39
2 39 40
2 40 41
2 41 42
2 42 43
2 43 44
2 44 45
2 45 46
2 46 47
2 47 48
2 48 49
2 49 50
2 50 51
2 51 52
2 52 53
2 53 54
2 54 55
2 55 56
2 56 57
2 57 58
2 58 59
2 59 60
2 60 61
2 61 62
2 62 63
2 63 64
2 64 65
2 65 66
2 66 67
2 67 68
2 68 69
2 69 70
2 70 71
2 71 72
2 72 73
2 73 74
2 74 75
2 75 76
2 76 77
2 77 78
2 78 79
2 79 80
2 80 81
2 81 82
2 82 83
2 83 84
2 84 85
2 85 86
2 86 87
2 87 88
2 88 89
2 89 90
2 90 91
2 91 92
2 92 93
2 93 94
2 94 95
2 95 96
2 96 97
2 97 98
2 98 99
2 99 100

CELL_TYPES 100
3
3
3
3
3
3
3
3
3
3
3
3
3
3
3
3
3
3
3
3
3
3
3
3
3
3
3
3
3
3
3
3
3
3
3
3
3
3
3
3
3
3
3
3
3
3
3
3
3
3
3
3
3
3
3
3
3
3
3
3
3
3
3
3
3
3
3
3
3
3
3
3
3
3
3
3
3
3
3
3
3
3
3
3
3
3
3
3
3
3
3
3
3
3
3
3
3
3
3
3

POINT_DATA 101
SCALARS HEAD double 1
LOOKUP_TABLE default
1.000000000000e+01
1.000000000000e+01
1.000000000000e+01
1.000000000000e+01
1.000000000000e+01
1.000000000000e+01
1.000000000000e+01
1.000000000000e+01
1.000000000000e+01
1.000000000000e+01
1.000000000000e+01
1.000000000000e+01
1.000000000000e+01
1.000000000000e+01
1.000000000000e+01
1.000000000000e+01
1.000000000000e+01
1.000000000000e+01
1.000000000000e+01
1.000000000000e+01
1.000000000000e+01
1.000000000000e+01
1.000000000000e+01
1.000000000000e+01
1.000000000000e+01
1.000000000000e+01
1.000000000000e+01
1.000000000000e+01
1.000000000000e+01
1.000000000000e+01
1.000000000000e+01
1.000000000000e+01
1.000000000000e+01
1.000000000000e+01
1.000000000000e+01
1.000000000000e+01
1.000000000000e+01
1.000000000000e+01
1.000000000000e+01
1.000000000000e+01
1.000000000000e+01
1.000000000000e+01
1.000000000000e+01
1.000000000000e+01
1.000000000000e+01
1.000000000000e+01
1.000000000000e+01
1.000000000000e+01
1.000000000000e+01
1.000000000000e+01
1.000000000000e+01
1.000000000000e+01
1.000000000000e+01
1.000000000000e+01
1.000000000000e+01
1.000000000000e+01
1.000000000000e+01
1.000000000000e+01
1.000000000000e+01
1.000000000000e+01
1.000000000000e+01
1.000000000000e+01
1.000000000000e+01
1.000000000000e+01
1.000000000000e+01
1.000000000000e+01
1.000000000000e+01
1.000000000000e+01
1.000000000000e+01
1.000000000000e+01
1.000000000000e+01
1.000000000000e+01
1.000000000000e+01
1.000000000000e+01
1.000000000000e+01
1.000000000000e+01
1.000000000000e+01
1.000000000000e+01
1.000000000000e+01
1.000000000000e+01
1.000000000000e+01
1.000000000000e+01
1.000000000000e+01
1.000000000000e+01
1.000000000000e+01
1.000000000000e+01
1.000000000000e+01
1.000000000000e+01
1.000000000000e+01
1.000000000000e+01
1.000000000000e+01
1.000000000000e+01
1.000000000000e+01
1.000000000000e+01
1.000000000000e+01
1.000000000000e+01
1.000000000000e+01
1.000000000000e+01
1.000000000000e+01
1.000000000000e+01
1.000000000000e+01
SCALARS 1-Ael double 1
LOOKUP_TABLE default
1.226480323761e+00
1.228906923919e+00
1.224121187970e+00
1.219440806385e+00
1.214863436149e+00
1.210386762963e+00
1.206008511364e+00
1.201726478397e+00
1.197538481137e+00
1.193442340730e+00
1.189435962988e+00
1.185517281520e+00
1.181684273446e+00
1.177935020517e+00
1.174267442120e+00
1.170679736215e+00
1.167169455630e+00
1.163736460846e+00
1.160377322165e+00
1.157090297436e+00
1.153874830386e+00
1.150729254610e+00
1.147650884592e+00
1.144638203923e+00
1.141690615684e+00
1.138806685521e+00
1.135983975559e+00
1.133221527261e+00
1.130517477749e+00
1.127871514628e+00
1.125281736082e+00
1.122746955072e+00
1.120265926594e+00
1.117837776757e+00
1.115460058484e+00
1.113133385109e+00
1.110855330148e+00
1.108624831102e+00
1.106441991966e+00
1.104304223003e+00
1.102211664362e+00
1.100163309963e+00
1.098157128093e+00
1.096193573971e+00
1.094270696533e+00
1.092387974057e+00
1.090544493147e+00
1.088739106048e+00
1.086971938606e+00
1.085241228068e+00
1.083546488155e+00
1.081886956403e+00
1.080261575101e+00
1.078670531921e+00
1.077111879458e+00
1.075586085328e+00
1.074091328074e+00
1.072627780924e+00
1.071194515735e+00
1.069791092566e+00
1.068416168851e+00
1.067070100033e+00
1.065751540265e+00
1.064460163191e+00
1.063195176202e+00
1.061956444783e+00
1.060743414620e+00
1.059555063149e+00
1.058391115564e+00
1.057251060369e+00
1.056134346636e+00
1.055040280654e+00
1.053968994893e+00
1.052919205464e+00
1.051891220572e+00
1.050884014626e+00
1.049897291219e+00
1.048930461225e+00
1.047983458591e+00
1.047055827733e+00
1.046146809654e+00
1.045255992812e+00
1.044383528881e+00
1.043528338883e+00
1.042690528367e+00
1.041869718941e+00
1.041065227389e+00
1.040276870996e+00
1.039504292986e+00
1.038747150850e+00
1.038005111413e+00
1.037277855371e+00
1.036565061454e+00
1.035866419978e+00
1.035181632826e+00
1.034510400347e+00
1.033852436929e+00
1.033207462626e+00
1.032575203037e+00
1.031955391419e+00
1.030549450566e+00
SCALARS 2-Bel double 1
LOOKUP_TABLE default
7.735196762395e-01
7.710930733059e-01
7.758788059270e-01
7.805591843744e-01
7.851365516564e-01
7.896132220637e-01
7.939914710552e-01
7.982735015787e-01
8.024614965526e-01
8.065576348253e-01
8.105640105790e-01
8.144826901985e-01
8.183156965576e-01
8.220649479024e-01
8.257325248384e-01
8.293202294001e-01
8.328305087554e-01
8.362635024195e-01
8.396226400850e-01
8.429096638970e-01
8.461251301258e-01
8.492707051727e-01
8.523490745475e-01
8.553617546579e-01
8.583093424178e-01
8.611932721774e-01
8.640159818084e-01
8.667784298458e-01
8.694824791636e-01
8.721284421527e-01
8.747182206285e-01
8.772530016258e-01
8.797340301459e-01
8.821621800775e-01
8.845398984954e-01
8.868665720635e-01
8.891446272631e-01
8.913751265915e-01
8.935579660509e-01
8.956957353783e-01
8.977882944206e-01
8.998366492565e-01
9.018428315985e-01
9.038063862240e-01
9.057292641970e-01
9.076119872376e-01
9.094554687395e-01
9.112608564572e-01
9.130280245421e-01
9.147587357469e-01
9.164534763486e-01
9.181130088102e-01
9.197383908413e-01
9.213294347676e-01
9.228880879941e-01
9.244138829025e-01
9.259086409492e-01
9.273721889035e-01
9.288054549097e-01
9.302088789045e-01
9.315838034553e-01
9.329298731161e-01
9.342484337332e-01
9.355398116608e-01
9.368047995078e-01
9.380435317871e-01
9.392565628115e-01
9.404449151432e-01
9.416088635883e-01
9.427489196406e-01
9.438656342273e-01
9.449597010584e-01
9.460309876628e-01
9.470807779273e-01
9.481087636457e-01
9.491159704101e-01
9.501026946239e-01
9.510695254142e-01
9.520165288314e-01
9.529441604590e-01
9.538531792930e-01
9.547439968759e-01
9.556164615309e-01
9.564716522357e-01
9.573094634418e-01
9.581302735390e-01
9.589347657435e-01
9.597231227698e-01
9.604957013929e-01
9.612528441209e-01
9.619948841305e-01
9.627221407230e-01
9.634349351691e-01
9.641335771529e-01
9.648183647909e-01
9.654895977342e-01
9.661475615946e-01
9.667925363177e-01
9.674247963051e-01
9.680446083000e-01
9.694505494340e-01
SCALARS 3-H double 1
LOOKUP_TABLE default
1.994509163545e-04
1.994501384965e-04
1.994501752148e-04
1.995316851230e-04
1.994501525942e-04
1.995316057209e-04
1.994501696801e-04
1.995315213470e-04
1.995315393350e-04
1.994501777371e-04
1.995316789016e-04
1.994501735670e-04
1.994502074815e-04
1.995314889023e-04
1.995076362294e-04
1.996608841522e-04
1.995316217030e-04
1.994527714199e-04
1.995314720570e-04
1.994502089303e-04
1.995806447898e-04
1.995315122712e-04
1.995316285782e-04
1.994501931975e-04
1.995316164090e-04
1.995314685802e-04
1.995314527844e-04
1.995314484816e-04
1.996863702933e-04
1.995315930593e-04
1.994501978178e-04
1.995314775828e-04
1.995316669634e-04
1.995314925053e-04
1.995315047249e-04
1.994138356393e-04
1.995314819297e-04
1.995317386230e-04
1.995314831865e-04
1.995314782215e-04
1.995316405558e-04
1.995314670499e-04
1.995315143916e-04
1.994611278290e-04
1.994650775053e-04
1.994682471751e-04
1.994502120449e-04
1.995316030485e-04
1.995314827141e-04
1.995314788060e-04
1.995314854924e-04
1.994501943608e-04
1.995316465181e-04
1.994502044438e-04
1.995315203539e-04
1.995314478058e-04
1.994501911258e-04
1.995314620997e-04
1.995315001313e-04
1.994502189299e-04
1.994501696134e-04
1.996230520363e-04
1.995314535568e-04
1.995314793073e-04
1.995314603321e-04
1.995315291580e-04
1.995314584702e-04
1.996147407444e-04
1.994501855524e-04
1.994501807010e-04
1.995314625906e-04
1.994501863991e-04
1.995314620442e-04
1.995314907861e-04
1.995314726798e-04
1.995314748195e-04
1.994501801881e-04
1.995315957430e-04
1.995314536431e-04
1.993370168064e-04
1.995314400908e-04
1.995314783734e-04
1.995314445105e-04
1.994501593073e-04
1.994501682270e-04
1.994501713086e-04
1.994501471728e-04
1.995315449519e-04
1.995316121501e-04
1.995315853202e-04
1.995315577785e-04
1.994501745609e-04
1.994501521232e-04
1.995315702742e-04
1.995316184654e-04
1.995315693072e-04
1.994501609415e-04
1.994501642074e-04
1.995315415126e-04
1.994501733282e-04
1.994499886698e-04
SCALARS 4-Inrt double 1
LOOKUP_TABLE default
0.000000000000e+00
0.000000000000e+00
0.000000000000e+00
0.000000000000e+00
0.000000000000e+00
0.000000000000e+00
0.000000000000e+00
0.000000000000e+00
0.000000000000e+00
0.000000000000e+00
0.000000000000e+00
0.000000000000e+00
0.000000000000e+00
0.000000000000e+00
0.000000000000e+00
0.000000000000e+00
0.000000000000e+00
0.000000000000e+00
0.000000000000e+00
0.000000000000e+00
0.000000000000e+00
0.000000000000e+00
0.000000000000e+00
0.000000000000e+00
0.000000000000e+00
0.000000000000e+00
0.000000000000e+00
0.000000000000e+00
0.000000000000e+00
0.000000000000e+00
0.000000000000e+00
0.000000000000e+00
0.000000000000e+00
0.000000000000e+00
0.000000000000e+00
0.000000000000e+00
0.000000000000e+00
0.000000000000e+00
0.000000000000e+00
0.000000000000e+00
0.000000000000e+00
0.000000000000e+00
0.000000000000e+00
0.000000000000e+00
0.000000000000e+00
0.000000000000e+00
0.000000000000e+00
0.000000000000e+00
0.000000000000e+00
0.000000000000e+00
0.000000000000e+00
0.000000000000e+00
0.000000000000e+00
0.000000000000e+00
0.000000000000e+00
0.000000000000e+00
0.000000000000e+00
0.000000000000e+00
0.000000000000e+00
0.000000000000e+00
0.000000000000e+00
0.000000000000e+00
0.000000000000e+00
0.000000000000e+00
0.000000000000e+00
0.000000000000e+00
0.000000000000e+00
0.000000000000e+00
0.000000000000e+00
0.000000000000e+00
0.000000000000e+00
0.000000000000e+00
0.000000000000e+00
0.000000000000e+00
0.000000000000e+00
0.000000000000e+00
0.000000000000e+00
0.000000000000e+00
0.000000000000e+00
0.000000000000e+00
0.000000000000e+00
0.000000000000e+00
0.000000000000e+00
0.000000000000e+00
0.000000000000e+00
0.000000000000e+00
0.000000000000e+00
0.000000000000e+00
0.000000000000e+00
0.000000000000e+00
0.000000000000e+00
0.000000000000e+00
0.000000000000e+00
0.000000000000e+00
0.000000000000e+00
0.000000000000e+00
0.000000000000e+00
0.000000000000e+00
0.000000000000e+00
0.000000000000e+00
0.000000000000e+00
SCALARS 5-O double 1
LOOKUP_TABLE default
1.009972554693e-02
9.647064896622e-03
9.104559128536e-03
8.593039047905e-03
8.111229114865e-03
7.658161006245e-03
7.232565321576e-03
6.833528095883e-03
6.459876560742e-03
6.110585644527e-03
5.784786694097e-03
5.481355225867e-03
5.199483861795e-03
4.938274289646e-03
4.696765475471e-03
4.474261784047e-03
4.269729502375e-03
4.082563930051e-03
3.912076202409e-03
3.757396233612e-03
3.618028622401e-03
3.493125556786e-03
3.382176672526e-03
3.284519386826e-03
3.199705412463e-03
3.127067957077e-03
3.066128305252e-03
3.016391696852e-03
2.977462149458e-03
2.948657430607e-03
2.929738626580e-03
2.920340578577e-03
2.919950110104e-03
2.928233830264e-03
2.944835153183e-03
2.969353127190e-03
3.001638291228e-03
3.041199611868e-03
3.087794845142e-03
3.141134274593e-03
3.200938223318e-03
3.266936516065e-03
3.338865131002e-03
3.416436593443e-03
3.499474654843e-03
3.587698713277e-03
3.680862439569e-03
3.778791941052e-03
3.881167270633e-03
3.987802310642e-03
4.098471810992e-03
4.212913453147e-03
4.331024693808e-03
4.452422417161e-03
4.577049650245e-03
4.704561942526e-03
4.834738610028e-03
4.967480747948e-03
5.102443778475e-03
5.239405224573e-03
5.378223372729e-03
5.518721567920e-03
5.660456627862e-03
5.803380708147e-03
5.947223819746e-03
6.091762257812e-03
6.236772313420e-03
6.382075815906e-03
6.527283207251e-03
6.672381363683e-03
6.817112069232e-03
6.961137950769e-03
7.104409682779e-03
7.246596443515e-03
7.387534690210e-03
7.527025583236e-03
7.664834347761e-03
7.800895320330e-03
7.934903337670e-03
8.066627051314e-03
8.196190362729e-03
8.323143192126e-03
8.447427076147e-03
8.568858820949e-03
8.687386857878e-03
8.802845082850e-03
8.915118529098e-03
9.024142682942e-03
9.129740606012e-03
9.231868893992e-03
9.330453669981e-03
9.425390282499e-03
9.516708000878e-03
9.604364949519e-03
9.688247905416e-03
9.768377289301e-03
9.844701945617e-03
9.917302829844e-03
9.986189811995e-03
1.005126026609e-02
1.009972507400e-02
SCALARS 6-Zz double 1
LOOKUP_TABLE default
0.000000000000e+00
0.000000000000e+00
0.000000000000e+00
0.000000000000e+00
0.000000000000e+00
0.000000000000e+00
0.000000000000e+00
0.000000000000e+00
0.000000000000e+00
0.000000000000e+00
0.000000000000e+00
0.000000000000e+00
0.000000000000e+00
0.000000000000e+00
0.000000000000e+00
1.508030925092e-18
0.000000000000e+00
0.000000000000e+00
0.000000000000e+00
0.000000000000e+00
0.000000000000e+00
0.000000000000e+00
0.000000000000e+00
0.000000000000e+00
0.000000000000e+00
0.000000000000e+00
0.000000000000e+00
0.000000000000e+00
-4.389232701986e-18
0.000000000000e+00
0.000000000000e+00
0.000000000000e+00
0.000000000000e+00
0.000000000000e+00
0.000000000000e+00
2.809931599363e-18
0.000000000000e+00
0.000000000000e+00
0.000000000000e+00
0.000000000000e+00
0.000000000000e+00
0.000000000000e+00
0.000000000000e+00
-1.359187081527e-18
-1.576609113555e-18
-1.449714844360e-18
0.000000000000e+00
0.000000000000e+00
0.000000000000e+00
0.000000000000e+00
0.000000000000e+00
0.000000000000e+00
0.000000000000e+00
0.000000000000e+00
0.000000000000e+00
0.000000000000e+00
0.000000000000e+00
0.000000000000e+00
0.000000000000e+00
0.000000000000e+00
0.000000000000e+00
-3.858873515600e-18
0.000000000000e+00
0.000000000000e+00
0.000000000000e+00
0.000000000000e+00
0.000000000000e+00
-5.434824027975e-20
0.000000000000e+00
0.000000000000e+00
0.000000000000e+00
0.000000000000e+00
0.000000000000e+00
0.000000000000e+00
0.000000000000e+00
0.000000000000e+00
0.000000000000e+00
0.000000000000e+00
0.000000000000e+00
1.123157717954e-18
0.000000000000e+00
0.000000000000e+00
0.000000000000e+00
0.000000000000e+00
0.000000000000e+00
0.000000000000e+00
0.000000000000e+00
0.000000000000e+00
0.000000000000e+00
0.000000000000e+00
0.000000000000e+00
0.000000000000e+00
0.000000000000e+00
0.000000000000e+00
0.000000000000e+00
0.000000000000e+00
0.000000000000e+00
0.000000000000e+00
0.000000000000e+00
0.000000000000e+00
0.000000000000e+00
SCALARS Ael double 1
LOOKUP_TABLE default
 1.226480348683e-03
 1.197965724563e-03
 1.266320492058e-03
 1.338828399397e-03
 1.415745133903e-03
 1.497344078081e-03
 1.583914391805e-03
 1.675767528606e-03
 1.773225652772e-03
 1.876638746031e-03
 1.986377557475e-03
 2.102832114844e-03
 2.226423023451e-03
 2.357590276976e-03
 2.496806119400e-03
 2.644568354482e-03
 2.801414003675e-03
 2.967906925772e-03
 3.144644733823e-03
 3.332270844979e-03
 3.531460293115e-03
 3.742938925339e-03
 3.967464408480e-03
 4.205858985611e-03
 4.458980637484e-03
 4.727753403860e-03
 5.013159554846e-03
 5.316232422665e-03
 5.638073553917e-03
 5.979865499355e-03
 6.342849090907e-03
 6.728354481431e-03
 7.137783697060e-03
 7.572635047352e-03
 8.034503253749e-03
 8.525088868703e-03
 9.046178913679e-03
 9.599684358233e-03
 1.018764025553e-02
 1.081220616080e-02
 1.147567953798e-02
 1.218049846702e-02
 1.292926542227e-02
 1.372471257352e-02
 1.456979261076e-02
 1.546761883100e-02
 1.642149222889e-02
 1.743493462003e-02
 1.851169547914e-02
 1.965574066128e-02
 2.087129998205e-02
 2.216287674471e-02
 2.353525543183e-02
 2.499347818436e-02
 2.654296849221e-02
 2.818948489343e-02
 2.993907868605e-02
 3.179827312208e-02
 3.377395496876e-02
 3.587343915830e-02
 3.810453456476e-02
 4.047548042083e-02
 4.299515231825e-02
 4.567287333222e-02
 4.851858850183e-02
 5.154288587559e-02
 5.475698764943e-02
 5.817283945831e-02
 6.180322533993e-02
 6.566158215669e-02
 6.976228277891e-02
 7.412064678960e-02
 7.875283679925e-02
 8.367620158360e-02
 8.890899590067e-02
 9.447079041870e-02
 1.003822694951e-01
 1.066655056034e-01
 1.133439765595e-01
 1.204425426936e-01
 1.279876178641e-01
 1.360075638818e-01
 1.445322717187e-01
 1.535934322299e-01
 1.632249908989e-01
 1.734629434133e-01
 1.843454631503e-01
 1.959133287080e-01
 2.082097104243e-01
 2.212805600766e-01
 2.351747957863e-01
 2.499444151052e-01
 2.656444912169e-01
 2.823339998531e-01
 3.000751917557e-01
 3.189345268455e-01
 3.389826323907e-01
 3.602944927035e-01
 3.829499427728e-01
 4.070337861443e-01
 4.383250791802e-01
SCALARS Bel double 1
LOOKUP_TABLE default
 7.735196919577e-04
 9.213950993394e-04
 9.798164905074e-04
 1.041966530110e-03
 1.108085413110e-03
 1.178426973708e-03
 1.253262585798e-03
 1.332876754804e-03
 1.417580942167e-03
 1.507698842139e-03
 1.603575966220e-03
 1.705583826665e-03
 1.814111502964e-03
 1.929579877792e-03
 2.052432014760e-03
 2.183143293658e-03
 2.322211415374e-03
 2.470172676913e-03
 2.627599195752e-03
 2.795091263409e-03
 2.973296215019e-03
 3.162894211420e-03
 3.364622526467e-03
 3.579248419441e-03
 3.807603958927e-03
 4.050562065650e-03
 4.309051108320e-03
 4.584069267396e-03
 4.876675033901e-03
 5.187982555196e-03
 5.519193008400e-03
 5.871572758956e-03
 6.246480588790e-03
 6.645353685940e-03
 7.069718574290e-03
 7.521193452738e-03
 8.001520059929e-03
 8.512539489462e-03
 9.056206190316e-03
 9.634602579491e-03
 1.024994161765e-02
 1.090458109670e-02
 1.160101793138e-02
 1.234194207308e-02
 1.313016611607e-02
 1.396870693507e-02
 1.486078169471e-02
 1.580979928878e-02
 1.681937961994e-02
 1.789339264921e-02
 1.903594034578e-02
 2.025137855881e-02
 2.154434271289e-02
 2.291980683008e-02
 2.438299758776e-02
 2.593948075823e-02
 2.759524617678e-02
 2.935657393019e-02
 3.123019105024e-02
 3.322325817549e-02
 3.534335833337e-02
 3.759861853767e-02
 3.999756547444e-02
 4.254937997010e-02
 4.526379225696e-02
 4.815113508912e-02
 5.122243146002e-02
 5.448938916235e-02
 5.796437498061e-02
 6.166069507432e-02
 6.559241259973e-02
 6.977444419367e-02
 7.422277763334e-02
 7.895424989058e-02
 8.398695617731e-02
 8.933997704320e-02
 9.503372629383e-02
 1.010898314876e-01
 1.075312814434e-01
 1.143826242304e-01
 1.216699824069e-01
 1.294208566421e-01
 1.376647550929e-01
 1.464331465986e-01
 1.557592440317e-01
 1.656784618924e-01
 1.762285580220e-01
 1.874494923170e-01
 1.993839445768e-01
 2.120772484423e-01
 2.255775506223e-01
 2.399360637240e-01
 2.552074591389e-01
 2.714494538475e-01
 2.887238778733e-01
 3.070962078842e-01
 3.266361064090e-01
 3.474177610207e-01
 3.695199530670e-01
 3.930265377609e-01
 4.123377957347e-01
SCALARS H double 1
LOOKUP_TABLE default
 1.106904901085e+02
 6.686940031178e+01
 7.075026694707e+01
 7.487163792081e+01
 7.924802205982e+01
 8.389570101955e+01
 8.883130486868e+01
 9.407477725027e+01
 9.964257661862e+01
 1.055563577821e+02
 1.118385708107e+02
 1.185108098955e+02
 1.255996518856e+02
 1.331291594029e+02
 1.411278699745e+02
 1.496233983687e+02
 1.586508945318e+02
 1.682412256292e+02
 1.784292839756e+02
 1.892563365011e+02
 2.007587990011e+02
 2.129826437261e+02
 2.259683706242e+02
 2.397700768666e+02
 2.544318087280e+02
 2.700108999371e+02
 2.865709112937e+02
 3.041681559411e+02
 3.228669843018e+02
 3.427421049069e+02
 3.638634435865e+02
 3.863133731084e+02
 4.101692463437e+02
 4.355191583245e+02
 4.624650290668e+02
 4.911090757884e+02
 5.215526773446e+02
 5.539091945966e+02
 5.882968508929e+02
 6.248524699900e+02
 6.637085706154e+02
 7.050081622059e+02
 7.489234383336e+02
 7.955808215873e+02
 8.451881005564e+02
 8.979267725811e+02
 9.539828706441e+02
 1.013572313275e+03
 1.076917734315e+03
 1.144253446562e+03
 1.215831050824e+03
 1.291931279943e+03
 1.372855394995e+03
 1.458841445660e+03
 1.550268288983e+03
 1.647485926029e+03
 1.750811716115e+03
 1.860671194481e+03
 1.977472770509e+03
 2.101627707080e+03
 2.233652580966e+03
 2.373943111017e+03
 2.523167561258e+03
 2.681818833320e+03
 2.850493973249e+03
 3.029826053824e+03
 3.220445391398e+03
 3.423074693539e+03
 3.638602913140e+03
 3.867702065191e+03
 4.111252170319e+03
 4.370283209555e+03
 4.645578465654e+03
 4.938425215282e+03
 5.249663738080e+03
 5.580654146479e+03
 5.932514369137e+03
 6.306644265646e+03
 6.704497903985e+03
 7.127440957092e+03
 7.576927773199e+03
 8.055129598747e+03
 8.563635225705e+03
 9.104131558019e+03
 9.678810887325e+03
 1.028987080318e+04
 1.093947588732e+04
 1.163032404174e+04
 1.236483681268e+04
 1.314572787592e+04
 1.397606348198e+04
 1.485907973225e+04
 1.579759589487e+04
 1.679587298009e+04
 1.785707961646e+04
 1.898542552802e+04
 2.018529659588e+04
 2.146101479281e+04
 2.281754158751e+04
 2.425989923126e+04
 4.708014431404e+04
SCALARS Inrt double 1
LOOKUP_TABLE default
 9.989999999797e-01
 9.989403195872e-01
 9.988769315068e-01
 9.988096025321e-01
 9.987380847221e-01
 9.986621144684e-01
 9.985814115041e-01
 9.984956778498e-01
 9.984045966925e-01
 9.983078311943e-01
 9.982050232248e-01
 9.980957920141e-01
 9.979797327198e-01
 9.978564149036e-01
 9.977253809119e-01
 9.975861441527e-01
 9.974381872650e-01
 9.972809601707e-01
 9.971138780048e-01
 9.969363189128e-01
 9.967476217101e-01
 9.965470833929e-01
 9.963339564908e-01
 9.961074462526e-01
 9.958667076536e-01
 9.956108422137e-01
 9.953388946132e-01
 9.950498490960e-01
 9.947426256433e-01
 9.944160759058e-01
 9.940689788792e-01
 9.937000363042e-01
 9.933078677769e-01
 9.928910055484e-01
 9.924478889961e-01
 9.919768587443e-01
 9.914761504129e-01
 9.909438879703e-01
 9.903780766655e-01
 9.897765955124e-01
 9.891371892986e-01
 9.884574600883e-01
 9.877348581868e-01
 9.869666725337e-01
 9.861500204867e-01
 9.852818369600e-01
 9.843588628740e-01
 9.833776328739e-01
 9.823344622712e-01
 9.812254331577e-01
 9.800463796411e-01
 9.787928721452e-01
 9.774602007164e-01
 9.760433572733e-01
 9.745370167321e-01
 9.729355169377e-01
 9.712328373236e-01
 9.694225762203e-01
 9.674979267283e-01
 9.654516510623e-01
 9.632760532715e-01
 9.609629502328e-01
 9.585036408073e-01
 9.558888730442e-01
 9.531088093078e-01
 9.501529891970e-01
 9.470102901170e-01
 9.436688853540e-01
 9.401161994971e-01
 9.363388610353e-01
 9.323226519553e-01
 9.280524541474e-01
 9.235121924176e-01
 9.186847738924e-01
 9.135520235868e-01
 9.080946158918e-01
 9.022920017262e-01
 8.961223310738e-01
 8.895623706177e-01
 8.825874161578e-01
 8.751711994862e-01
 8.672857893628e-01
 8.589014862233e-01
 8.499867102205e-01
 8.405078821765e-01
 8.304292969976e-01
 8.197129890745e-01
 8.083185891600e-01
 7.962031721855e-01
 7.833210954419e-01
 7.696238265144e-01
 7.550597603232e-01
 7.395740245811e-01
 7.231082729321e-01
 7.056004649933e-01
 6.869846324706e-01
 6.671906304655e-01
 6.461438730355e-01
 6.237650520123e-01
 5.999698380167e-01
 5.746685625425e-01
SCALARS O double 1
LOOKUP_TABLE default
 5.534525505425e+01
 3.343470592355e+01
 3.537513922917e+01
 3.743582470530e+01
 3.962401676569e+01
 4.194785623851e+01
 4.441565815858e+01
 4.703739434809e+01
 4.982129403463e+01
 5.277818462312e+01
 5.591929114936e+01
 5.925541070960e+01
 6.279983172947e+01
 6.656458552082e+01
 7.056394084833e+01
 7.481170509740e+01
 7.932545324263e+01
 8.412061886823e+01
 8.921464813311e+01
 9.462817450438e+01
 1.003794058816e+02
 1.064913283923e+02
 1.129841920129e+02
 1.198850453320e+02
 1.272159114895e+02
 1.350054573531e+02
 1.432854633266e+02
 1.520840859852e+02
 1.614335005445e+02
 1.713710612748e+02
 1.819317310961e+02
 1.931566963981e+02
 2.050846336222e+02
 2.177595902910e+02
 2.312325264201e+02
 2.455545506262e+02
 2.607763523454e+02
 2.769546120176e+02
 2.941484413272e+02
 3.124262521636e+02
 3.318543039025e+02
 3.525041012753e+02
 3.744617410823e+02
 3.977904346323e+02
 4.225940762373e+02
 4.489634145851e+02
 4.769914661860e+02
 5.067861903255e+02
 5.384589039471e+02