# vtk DataFile Version 3.0
Unstructured Grid from OpenGeoSys
ASCII
DATASET UNSTRUCTURED_GRID
FIELD TimesAndCycles 2
TIME 1 1 double
6.000000000000e+03
CYLCE 1 1 long
60
POINTS 101 double
0.000000000000e+00 0.000000000000e+00 0.000000000000e+00
2.000000000000e-05 0.000000000000e+00 0.000000000000e+00
4.000000000000e-05 0.000000000000e+00 0.000000000000e+00
6.000000000000e-05 0.000000000000e+00 0.000000000000e+00
8.000000000000e-05 0.000000000000e+00 0.000000000000e+00
1.000000000000e-04 0.000000000000e+00 0.000000000000e+00
1.200000000000e-04 0.000000000000e+00 0.000000000000e+00
1.400000000000e-04 0.000000000000e+00 0.000000000000e+00
1.600000000000e-04 0.000000000000e+00 0.000000000000e+00
1.800000000000e-04 0.000000000000e+00 0.000000000000e+00
2.000000000000e-04 0.000000000000e+00 0.000000000000e+00
2.200000000000e-04 0.000000000000e+00 0.000000000000e+00
2.400000000000e-04 0.000000000000e+00 0.000000000000e+00
2.600000000000e-04 0.000000000000e+00 0.000000000000e+00
2.800000000000e-04 0.000000000000e+00 0.000000000000e+00
3.000000000000e-04 0.000000000000e+00 0.000000000000e+00
3.200000000000e-04 0.000000000000e+00 0.000000000000e+00
3.400000000000e-04 0.000000000000e+00 0.000000000000e+00
3.600000000000e-04 0.000000000000e+00 0.000000000000e+00
3.800000000000e-04 0.000000000000e+00 0.000000000000e+00
4.000000000000e-04 0.000000000000e+00 0.000000000000e+00
4.200000000000e-04 0.000000000000e+00 0.000000000000e+00
4.400000000000e-04 0.000000000000e+00 0.000000000000e+00
4.600000000000e-04 0.000000000000e+00 0.000000000000e+00
4.800000000000e-04 0.000000000000e+00 0.000000000000e+00
5.000000000000e-04 0.000000000000e+00 0.000000000000e+00
5.200000000000e-04 0.000000000000e+00 0.000000000000e+00
5.400000000000e-04 0.000000000000e+00 0.000000000000e+00
5.600000000000e-04 0.000000000000e+00 0.000000000000e+00
5.800000000000e-04 0.000000000000e+00 0.000000000000e+00
6.000000000000e-04 0.000000000000e+00 0.000000000000e+00
6.200000000000e-04 0.000000000000e+00 0.000000000000e+00
6.400000000000e-04 0.000000000000e+00 0.000000000000e+00
6.600000000000e-04 0.000000000000e+00 0.000000000000e+00
6.800000000000e-04 0.000000000000e+00 0.000000000000e+00
7.000000000000e-04 0.000000000000e+00 0.000000000000e+00
7.200000000000e-04 0.000000000000e+00 0.000000000000e+00
7.400000000000e-04 0.000000000000e+00 0.000000000000e+00
7.600000000000e-04 0.000000000000e+00 0.000000000000e+00
7.800000000000e-04 0.000000000000e+00 0.000000000000e+00
8.000000000000e-04 0.000000000000e+00 0.000000000000e+00
8.200000000000e-04 0.000000000000e+00 0.000000000000e+00
8.400000000000e-04 0.000000000000e+00 0.000000000000e+00
8.600000000000e-04 0.000000000000e+00 0.000000000000e+00
8.800000000000e-04 0.000000000000e+00 0.000000000000e+00
9.000000000000e-04 0.000000000000e+00 0.000000000000e+00
9.200000000000e-04 0.000000000000e+00 0.000000000000e+00
9.400000000000e-04 0.000000000000e+00 0.000000000000e+00
9.600000000000e-04 0.000000000000e+00 0.000000000000e+00
9.800000000000e-04 0.000000000000e+00 0.000000000000e+00
1.000000000000e-03 0.000000000000e+00 0.000000000000e+00
1.020000000000e-03 0.000000000000e+00 0.000000000000e+00
1.040000000000e-03 0.000000000000e+00 0.000000000000e+00
1.060000000000e-03 0.000000000000e+00 0.000000000000e+00
1.080000000000e-03 0.000000000000e+00 0.000000000000e+00
1.100000000000e-03 0.000000000000e+00 0.000000000000e+00
1.120000000000e-03 0.000000000000e+00 0.000000000000e+00
1.140000000000e-03 0.000000000000e+00 0.000000000000e+00
1.160000000000e-03 0.000000000000e+00 0.000000000000e+00
1.180000000000e-03 0.000000000000e+00 0.000000000000e+00
1.200000000000e-03 0.000000000000e+00 0.000000000000e+00
1.220000000000e-03 0.000000000000e+00 0.000000000000e+00
1.240000000000e-03 0.000000000000e+00 0.000000000000e+00
1.260000000000e-03 0.000000000000e+00 0.000000000000e+00
1.280000000000e-03 0.000000000000e+00 0.000000000000e+00
1.300000000000e-03 0.000000000000e+00 0.000000000000e+00
1.320000000000e-03 0.000000000000e+00 0.000000000000e+00
1.340000000000e-03 0.000000000000e+00 0.000000000000e+00
1.360000000000e-03 0.000000000000e+00 0.000000000000e+00
1.380000000000e-03 0.000000000000e+00 0.000000000000e+00
1.400000000000e-03 0.000000000000e+00 0.000000000000e+00
1.420000000000e-03 0.000000000000e+00 0.000000000000e+00
1.440000000000e-03 0.000000000000e+00 0.000000000000e+00
1.460000000000e-03 0.000000000000e+00 0.000000000000e+00
1.480000000000e-03 0.000000000000e+00 0.000000000000e+00
1.500000000000e-03 0.000000000000e+00 0.000000000000e+00
1.520000000000e-03 0.000000000000e+00 0.000000000000e+00
1.540000000000e-03 0.000000000000e+00 0.000000000000e+00
1.560000000000e-03 0.000000000000e+00 0.000000000000e+00
1.580000000000e-03 0.000000000000e+00 0.000000000000e+00
1.600000000000e-03 0.000000000000e+00 0.000000000000e+00
1.620000000000e-03 0.000000000000e+00 0.000000000000e+00
1.640000000000e-03 0.000000000000e+00 0.000000000000e+00
1.660000000000e-03 0.000000000000e+00 0.000000000000e+00
1.680000000000e-03 0.000000000000e+00 0.000000000000e+00
1.700000000000e-03 0.000000000000e+00 0.000000000000e+00
1.720000000000e-03 0.000000000000e+00 0.000000000000e+00
1.740000000000e-03 0.000000000000e+00 0.000000000000e+00
1.760000000000e-03 0.000000000000e+00 0.000000000000e+00
1.780000000000e-03 0.000000000000e+00 0.000000000000e+00
1.800000000000e-03 0.000000000000e+00 0.000000000000e+00
1.820000000000e-03 0.000000000000e+00 0.000000000000e+00
1.840000000000e-03 0.000000000000e+00 0.000000000000e+00
1.860000000000e-03 0.000000000000e+00 0.000000000000e+00
1.880000000000e-03 0.000000000000e+00 0.000000000000e+00
1.900000000000e-03 0.000000000000e+00 0.000000000000e+00
1.920000000000e-03 0.000000000000e+00 0.000000000000e+00
1.940000000000e-03 0.000000000000e+00 0.000000000000e+00
1.960000000000e-03 0.000000000000e+00 0.000000000000e+00
1.980000000000e-03 0.000000000000e+00 0.000000000000e+00
2.000000000000e-03 0.000000000000e+00 0.000000000000e+00
CELLS 100 300
2 0 1
2 1 2
2 2 3
2 3 4
2 4 5
2 5 6
2 6 7
2 7 8
2 8 9
2 9 10
2 10 11
2 11 12
2 12 13
2 13 14
2 14 15
2 15 16
2 16 17
2 17 18
2 18 19
2 19 20
2 20 21
2 21 22
2 22 23
2 23 24
2 24 25
2 25 26
2 26 27
2 27 28
2 28 29
2 29 30
2 30 31
2 31 32
2 32 33
2 33 34
2 34 35
2 35 36
2 36 37
2 37 38
2 38 39
2 39 40
2 40 41
2 41 42
2 42 43
2 43 44
2 44 45
2 45 46
2 46 47
2 47 48
2 48 49
2 49 50
2 50 51
2 51 52
2 52 53
2 53 54
2 54 55
2 55 56
2 56 57
2 57 58
2 58 59
2 59 60
2 60 61
2 61 62
2 62 63
2 63 64
2 64 65
2 65 66
2 66 67
2 67 68
2 68 69
2 69 70
2 70 71
2 71 72
2 72 73
2 73 74
2 74 75
2 75 76
2 76 77
2 77 78
2 78 79
2 79 80
2 80 81
2 81 82
2 82 83
2 83 84
2 84 85
2 85 86
2 86 87
2 87 88
2 88 89
2 89 90
2 90 91
2 91 92
2 92 93
2 93 94
2 94 95
2 95 96
2 96 97
2 97 98
2 98 99
2 99 100

CELL_TYPES 100
3
3
3
3
3
3
3
3
3
3
3
3
3
3
3
3
3
3
3
3
3
3
3
3
3
3
3
3
3
3
3
3
3
3
3
3
3
3
3
3
3
3
3
3
3
3
3
3
3
3
3
3
3
3
3
3
3
3
3
3
3
3
3
3
3
3
3
3
3
3
3
3
3
3
3
3
3
3
3
3
3
3
3
3
3
3
3
3
3
3
3
3
3
3
3
3
3
3
3
3

POINT_DATA 101
SCALARS HEAD double 1
LOOKUP_TABLE default
1.000000000000e+01
1.000000000000e+01
1.000000000000e+01
1.000000000000e+01
1.000000000000e+01
1.000000000000e+01
1.000000000000e+01
1.000000000000e+01
1.000000000000e+01
1.000000000000e+01
1.000000000000e+01
1.000000000000e+01
1.000000000000e+01
1.000000000000e+01
1.000000000000e+01
1.000000000000e+01
1.000000000000e+01
1.000000000000e+01
1.000000000000e+01
1.000000000000e+01
1.000000000000e+01
1.000000000000e+01
1.000000000000e+01
1.000000000000e+01
1.000000000000e+01
1.000000000000e+01
1.000000000000e+01
1.000000000000e+01
1.000000000000e+01
1.000000000000e+01
1.000000000000e+01
1.000000000000e+01
1.000000000000e+01
1.000000000000e+01
1.000000000000e+01
1.000000000000e+01
1.000000000000e+01
1.000000000000e+01
1.000000000000e+01
1.000000000000e+01
1.000000000000e+01
1.000000000000e+01
1.000000000000e+01
1.000000000000e+01
1.000000000000e+01
1.000000000000e+01
1.000000000000e+01
1.000000000000e+01
1.000000000000e+01
1.000000000000e+01
1.000000000000e+01
1.000000000000e+01
1.000000000000e+01
1.000000000000e+01
1.000000000000e+01
1.000000000000e+01
1.000000000000e+01
1.000000000000e+01
1.000000000000e+01
1.000000000000e+01
1.000000000000e+01
1.000000000000e+01
1.000000000000e+01
1.000000000000e+01
1.000000000000e+01
1.000000000000e+01
1.000000000000e+01
1.000000000000e+01
1.000000000000e+01
1.000000000000e+01
1.000000000000e+01
1.000000000000e+01
1.000000000000e+01
1.000000000000e+01
1.000000000000e+01
1.000000000000e+01
1.000000000000e+01
1.000000000000e+01
1.000000000000e+01
1.000000000000e+01
1.000000000000e+01
1.000000000000e+01
1.000000000000e+01
1.000000000000e+01
1.000000000000e+01
1.000000000000e+01
1.000000000000e+01
1.000000000000e+01
1.000000000000e+01
1.000000000000e+01
1.000000000000e+01
1.000000000000e+01
1.000000000000e+01
1.000000000000e+01
1.000000000000e+01
1.000000000000e+01
1.000000000000e+01
1.000000000000e+01
1.000000000000e+01
1.000000000000e+01
1.000000000000e+01
SCALARS 1-Ael double 1
LOOKUP_TABLE default
1.326762061843e+00
1.331092708077e+00
1.324688269473e+00
1.318391542685e+00
1.312202201324e+00
1.306119789630e+00
1.300143742609e+00
1.294273439363e+00
1.288508137826e+00
1.282846959334e+00
1.277289005882e+00
1.271833288350e+00
1.266478759865e+00
1.261224317614e+00
1.256068785651e+00
1.251010929327e+00
1.246049504115e+00
1.241183239613e+00
1.236410792474e+00
1.231730833342e+00
1.227141973576e+00
1.222642854837e+00
1.218232079394e+00
1.213908210423e+00
1.209669857775e+00
1.205515548022e+00
1.201443866910e+00
1.197453396977e+00
1.193542729737e+00
1.189710464756e+00
1.185955152946e+00
1.182275434607e+00
1.178669866058e+00
1.175137016680e+00
1.171675545688e+00
1.168284108669e+00
1.164961382270e+00
1.161706002220e+00
1.158516642875e+00
1.155392008456e+00
1.152330824289e+00
1.149331839352e+00
1.146393819045e+00
1.143515520247e+00
1.140695731471e+00
1.137933295526e+00
1.135227018683e+00
1.132575761874e+00
1.129978412752e+00
1.127433833585e+00
1.124940926061e+00
1.122498652102e+00
1.120105981379e+00
1.117761861261e+00
1.115465272451e+00
1.113215248911e+00
1.111010822088e+00
1.108851039382e+00
1.106734990585e+00
1.104661737217e+00
1.102630363881e+00
1.100639992550e+00
1.098689775606e+00
1.096778892147e+00
1.094906536426e+00
1.093071903748e+00
1.091274173042e+00
1.089512539368e+00
1.087786259245e+00
1.086094622216e+00
1.084436887202e+00
1.082812354468e+00
1.081220336579e+00
1.079660154350e+00
1.078131138918e+00
1.076632627621e+00
1.075163992719e+00
1.073724598677e+00
1.072313850474e+00
1.070931158740e+00
1.069575910576e+00
1.068247539247e+00
1.066945522442e+00
1.065669300100e+00
1.064418321665e+00
1.063192070734e+00
1.061990031826e+00
1.060811706101e+00
1.059656609911e+00
1.058524258121e+00
1.057414179948e+00
1.056325923998e+00
1.055259034610e+00
1.054213072106e+00
1.053187612737e+00
1.052182229052e+00
1.051196513202e+00
1.050230064402e+00
1.049282488754e+00
1.048353402423e+00
1.046391619829e+00
SCALARS 2-Bel double 1
LOOKUP_TABLE default
6.732379381569e-01
6.689072905953e-01
6.753117270745e-01
6.816084518479e-01
6.877977913038e-01
6.938802012002e-01
6.998562465313e-01
7.057265481935e-01
7.114918482471e-01
7.171530253575e-01
7.227109775270e-01
7.281666938728e-01
7.335212212638e-01
7.387756625130e-01
7.439311935629e-01
7.489890490587e-01
7.539504735254e-01
7.588167373625e-01
7.635891839131e-01
7.682691425297e-01
7.728580018533e-01
7.773571202177e-01
7.817678953507e-01
7.860917640761e-01
7.903301165354e-01
7.944844261576e-01
7.985561071927e-01
8.025465770997e-01
8.064572443626e-01
8.102895094118e-01
8.140448213334e-01
8.177245398254e-01
8.213301085640e-01
8.248629581677e-01
8.283244294184e-01
8.317158667266e-01
8.350385934442e-01
8.382939738391e-01
8.414833335534e-01
8.446079683640e-01
8.476691529430e-01
8.506681383099e-01
8.536061590641e-01
8.564844583237e-01
8.593042475747e-01
8.620666840053e-01
8.647729613450e-01
8.674242186590e-01
8.700215682922e-01
8.725661479773e-01
8.750590560234e-01
8.775013305068e-01
8.798940017575e-01
8.822381224041e-01
8.845347117418e-01
8.867847358092e-01
8.889891631570e-01
8.911489463857e-01
8.932649957016e-01
8.953382495837e-01
8.973696234291e-01
8.993599952633e-01
9.013102127041e-01
9.032210966529e-01
9.050934528572e-01
9.069280860094e-01
9.087258171816e-01
9.104874513141e-01
9.122137318856e-01
9.139053693538e-01
9.155631047970e-01
9.171876379497e-01
9.187796562485e-01
9.203398388763e-01
9.218688546964e-01
9.233673663717e-01
9.248360016410e-01
9.262753960394e-01
9.276861445878e-01
9.290688366562e-01
9.304240851441e-01
9.317524567853e-01
9.330544738927e-01
9.343306965258e-01
9.355816752416e-01
9.368079264424e-01
9.380099656099e-01
9.391882915835e-01
9.403433880125e-01
9.414757400313e-01
9.425858184232e-01
9.436740745823e-01
9.447409641700e-01
9.457869268642e-01
9.468123864133e-01
9.478177702700e-01
9.488034862829e-01
9.497699352367e-01
9.507175110307e-01
9.516465974990e-01
9.536083801708e-01
SCALARS 3-H double 1
LOOKUP_TABLE default
1.994509163545e-04
1.994500924519e-04
1.995316095492e-04
1.995315475171e-04
1.994500979369e-04
1.994501147903e-04
1.995316749929e-04
1.994501391575e-04
1.995316784540e-04
1.994501414527e-04
1.995314795434e-04
1.995317136790e-04
1.994501462174e-04
1.995314956148e-04
1.995316072104e-04
1.995315130549e-04
1.995314503149e-04
1.994501514160e-04
1.995316886805e-04
1.994501539511e-04
1.995315327325e-04
1.995316951440e-04
1.994501504068e-04
1.995314265200e-04
1.994501622120e-04
1.995316346761e-04
1.995314921918e-04
1.995315202625e-04
1.995314540433e-04
1.995316516371e-04
1.994501488305e-04
1.995315875146e-04
1.994501585431e-04
1.994501740335e-04
1.995315291792e-04
1.995316332159e-04
1.995316353661e-04
1.994501558388e-04
1.995316034532e-04
1.994501727924e-04
1.995315631850e-04
1.994501657147e-04
1.994501619555e-04
1.994501500289e-04
1.995315006495e-04
1.995315919405e-04
1.994501534952e-04
1.995315782144e-04
1.995314330540e-04
1.994501735071e-04
1.995316017935e-04
1.995315790426e-04
1.995315460007e-04
1.995315667037e-04
1.994501543131e-04
1.994501668225e-04
1.994501639333e-04
1.994501646507e-04
1.994501565690e-04
1.994501651552e-04
1.994501865472e-04
1.994501864756e-04
1.995316145540e-04
1.994501825211e-04
1.995314388426e-04
1.995314465203e-04
1.994501809361e-04
1.994501812748e-04
1.995316103909e-04
1.994501612722e-04
1.995316050211e-04
1.994501756712e-04
1.995315770295e-04
1.995315435200e-04
1.994501663558e-04
1.995315825488e-04
1.994501789927e-04
1.995316129278e-04
1.994501676830e-04
1.994501489540e-04
1.995315155735e-04
1.994501773707e-04
1.995315882127e-04
1.995315831314e-04
1.994501699753e-04
1.994501697703e-04
1.995315984413e-04
1.995315513243e-04
1.994501553114e-04
1.995315500431e-04
1.995316216799e-04
1.995315788150e-04
1.995315939295e-04
1.994501722509e-04
1.994501719310e-04
1.995314740209e-04
1.995315401051e-04
1.995316039526e-04
1.994501688148e-04
1.994501691734e-04
1.994499886698e-04
SCALARS 4-Inrt double 1
LOOKUP_TABLE default
0.000000000000e+00
0.000000000000e+00
0.000000000000e+00
0.000000000000e+00
0.000000000000e+00
0.000000000000e+00
0.000000000000e+00
0.000000000000e+00
0.000000000000e+00
0.000000000000e+00
0.000000000000e+00
0.000000000000e+00
0.000000000000e+00
0.000000000000e+00
0.000000000000e+00
0.000000000000e+00
0.000000000000e+00
0.000000000000e+00
0.000000000000e+00
0.000000000000e+00
0.000000000000e+00
0.000000000000e+00
0.000000000000e+00
0.000000000000e+00
0.000000000000e+00
0.000000000000e+00
0.000000000000e+00
0.000000000000e+00
0.000000000000e+00
0.000000000000e+00
0.000000000000e+00
0.000000000000e+00
0.000000000000e+00
0.000000000000e+00
0.000000000000e+00
0.000000000000e+00
0.000000000000e+00
0.000000000000e+00
0.000000000000e+00
0.000000000000e+00
0.000000000000e+00
0.000000000000e+00
0.000000000000e+00
0.000000000000e+00
0.000000000000e+00
0.000000000000e+00
0.000000000000e+00
0.000000000000e+00
0.000000000000e+00
0.000000000000e+00
0.000000000000e+00
0.000000000000e+00
0.000000000000e+00
0.000000000000e+00
0.000000000000e+00
0.000000000000e+00
0.000000000000e+00
0.000000000000e+00
0.000000000000e+00
0.000000000000e+00
0.000000000000e+00
0.000000000000e+00
0.000000000000e+00
0.000000000000e+00
0.000000000000e+00
0.000000000000e+00
0.000000000000e+00
0.000000000000e+00
0.000000000000e+00
0.000000000000e+00
0.000000000000e+00
0.000000000000e+00
0.000000000000e+00
0.000000000000e+00
0.000000000000e+00
0.000000000000e+00
0.000000000000e+00
0.000000000000e+00
0.000000000000e+00
0.000000000000e+00
0.000000000000e+00
0.000000000000e+00
0.000000000000e+00
0.000000000000e+00
0.000000000000e+00
0.000000000000e+00
0.000000000000e+00
0.000000000000e+00
0.000000000000e+00
0.000000000000e+00
0.000000000000e+00
0.000000000000e+00
0.000000000000e+00
0.000000000000e+00
0.000000000000e+00
0.000000000000e+00
0.000000000000e+00
0.000000000000e+00
0.000000000000e+00
0.000000000000e+00
0.000000000000e+00
SCALARS 5-O double 1
LOOKUP_TABLE default
1.009972554693e-02
1.002881124186e-02
9.915384797203e-03
9.807898789597e-03
9.706300127556e-03
9.610601036043e-03
9.520718651565e-03
9.436435334581e-03
9.357807360036e-03
9.284553897633e-03
9.216712113038e-03
9.154026233295e-03
9.096355531090e-03
9.043676359050e-03
8.995715705556e-03
8.952359231831e-03
8.913449546155e-03
8.878786317459e-03
8.848330010533e-03
8.821755548648e-03
8.799063191096e-03
8.779968820447e-03
8.764310624183e-03
8.752050456722e-03
8.742866940067e-03
8.736765817318e-03
8.733470542300e-03
8.732870150040e-03
8.734815427368e-03
8.739160485002e-03
8.745721728345e-03
8.754481973069e-03
8.765142811137e-03
8.777694368276e-03
8.792008295035e-03
8.807878775209e-03
8.825225791164e-03
8.843892291379e-03
8.863888001689e-03
8.884941502442e-03
8.907111049902e-03
8.930133242411e-03
8.954033491982e-03
8.978678622788e-03
9.004020635718e-03
9.029893042220e-03
9.056214898334e-03
9.083030969926e-03
9.110145247594e-03
9.137488128340e-03
9.165115150558e-03
9.192840855028e-03
9.220646003470e-03
9.248474539087e-03
9.276232639419e-03
9.303951343549e-03
9.331542910610e-03
9.358963252451e-03
9.386170884391e-03
9.413127651092e-03
9.439798074730e-03
9.466148967994e-03
9.492190276190e-03
9.517771286166e-03
9.543028605432e-03
9.567816650412e-03
9.592114220146e-03
9.615983603793e-03
9.639407324700e-03
9.662247196076e-03
9.684652650980e-03
9.706448657560e-03
9.727787802637e-03
9.748539104814e-03
9.768695593773e-03
9.788373709757e-03
9.807406153562e-03
9.825952865496e-03
9.843849059814e-03
9.861216051809e-03
9.878054714984e-03
9.894244361637e-03
9.909949788932e-03
9.925052447819e-03
9.939556787801e-03
9.953549172027e-03
9.967035459978e-03
9.979940627035e-03
9.992271901614e-03
1.000415901762e-02
1.001548829669e-02
1.002630905514e-02
1.003663055151e-02
1.004642182843e-02
1.005577420820e-02
1.006469802502e-02
1.007312264357e-02
1.008109952438e-02
1.008859904432e-02
1.009571396649e-02
1.009972507400e-02
SCALARS 6-Zz double 1
LOOKUP_TABLE default
0.000000000000e+00
0.000000000000e+00
0.000000000000e+00
0.000000000000e+00
0.000000000000e+00
0.000000000000e+00
0.000000000000e+00
0.000000000000e+00
0.000000000000e+00
0.000000000000e+00
0.000000000000e+00
0.000000000000e+00
0.000000000000e+00
0.000000000000e+00
0.000000000000e+00
0.000000000000e+00
0.000000000000e+00
0.000000000000e+00
0.000000000000e+00
0.000000000000e+00
0.000000000000e+00
0.000000000000e+00
0.000000000000e+00
0.000000000000e+00
0.000000000000e+00
0.000000000000e+00
0.000000000000e+00
0.000000000000e+00
0.000000000000e+00
0.000000000000e+00
0.000000000000e+00
0.000000000000e+00
0.000000000000e+00
0.000000000000e+00
0.000000000000e+00
0.000000000000e+00
0.000000000000e+00
0.000000000000e+00
0.000000000000e+00
0.000000000000e+00
0.000000000000e+00
0.000000000000e+00
0.000000000000e+00
0.000000000000e+00
0.000000000000e+00
0.000000000000e+00
0.000000000000e+00
0.000000000000e+00
0.000000000000e+00
0.000000000000e+00
0.000000000000e+00
0.000000000000e+00
0.000000000000e+00
0.000000000000e+00
0.000000000000e+00
0.000000000000e+00
0.000000000000e+00
0.000000000000e+00
0.000000000000e+00
0.000000000000e+00
0.000000000000e+00
0.000000000000e+00
0.000000000000e+00
0.000000000000e+00
0.000000000000e+00
0.000000000000e+00
0.000000000000e+00
0.000000000000e+00
0.000000000000e+00
0.000000000000e+00
0.000000000000e+00
0.000000000000e+00
0.000000000000e+00
0.000000000000e+00
0.000000000000e+00
0.000000000000e+00
0.000000000000e+00
0.000000000000e+00
0.000000000000e+00
0.000000000000e+00
0.000000000000e+00
0.000000000000e+00
0.000000000000e+00
0.000000000000e+00
0.000000000000e+00
0.000000000000e+00
0.000000000000e+00
0.000000000000e+00
0.000000000000e+00
0.000000000000e+00
0.000000000000e+00
0.000000000000e+00
0.000000000000e+00
0.000000000000e+00
0.000000000000e+00
0.000000000000e+00
0.000000000000e+00
0.000000000000e+00
0.000000000000e+00
0.000000000000e+00
0.000000000000e+00
SCALARS Ael double 1
LOOKUP_TABLE default
 1.326762088803e-03
 1.129586885051e-03
 1.195167711054e-03
 1.264787241793e-03
 1.338696759858e-03
 1.417164220681e-03
 1.500473786458e-03
 1.588929589511e-03
 1.682850564812e-03
 1.782579513374e-03
 1.888480249474e-03
 2.000937571283e-03
 2.120363515753e-03
 2.247192648594e-03
 2.381889642573e-03
 2.524945657967e-03
 2.676887833224e-03
 2.838270219786e-03
 3.009685948804e-03
 3.191765241844e-03
 3.385174094515e-03
 3.590629861267e-03
 3.808880470427e-03
 4.040736489040e-03
 4.287048472436e-03
 4.548722915165e-03
 4.826731562111e-03
 5.122093766365e-03
 5.435909108743e-03
 5.769328850513e-03
 6.123590056493e-03
 6.500007674959e-03
 6.899960520970e-03
 7.324945220760e-03
 7.776529217822e-03
 8.256393486767e-03
 8.766312129193e-03
 9.308175441993e-03
 9.883999945654e-03
 1.049592088308e-02
 1.114621641228e-02
 1.183730013098e-02
 1.257174585412e-02
 1.335227521583e-02
 1.418180632486e-02
 1.506342097098e-02
 1.600039482872e-02
 1.699623479539e-02
 1.805463580885e-02
 1.917954605337e-02
 2.037516072541e-02
 2.164595207174e-02
 2.299664394733e-02
 2.443227887753e-02
 2.595821675863e-02
 2.758016851748e-02
 2.930416734902e-02
 3.113667797511e-02
 3.308453309443e-02
 3.515500152024e-02
 3.735583366553e-02
 3.969525569140e-02
 4.218202716791e-02
 4.482544582505e-02
 4.763540652233e-02
 5.062240643643e-02
 5.379761207516e-02
 5.717291466917e-02
 6.076098465031e-02
 6.457524200538e-02
 6.862993970348e-02
 7.294032919940e-02
 7.752248643522e-02
 8.239365216176e-02
 8.757199411056e-02
 9.307700119082e-02
 9.892925117146e-02
 1.051507107205e-01
 1.117647255550e-01
 1.187960680284e-01
 1.262710629644e-01
 1.342178633296e-01
 1.426662362940e-01
 1.516478132389e-01
 1.611963515822e-01
 1.713476785554e-01
 1.821398676104e-01
 1.936134693497e-01
 2.058115223849e-01
 2.187798116207e-01
 2.325670468215e-01
 2.472250136301e-01
 2.628086775620e-01
 2.793766739772e-01
 2.969911410953e-01
 3.157182736278e-01
 3.356284388309e-01
 3.567964068165e-01
 3.793017287576e-01
 4.032289531755e-01
 4.450632518053e-01
SCALARS Bel double 1
LOOKUP_TABLE default
 6.732379518373e-04
 9.897739402482e-04
 1.050969274646e-03
 1.116007692687e-03
 1.185133794073e-03
 1.258606840082e-03
 1.336703202290e-03
 1.419714707340e-03
 1.507956045988e-03
 1.601758093213e-03
 1.701473295333e-03
 1.807478394180e-03
 1.920171037610e-03
 2.039977536275e-03
 2.167348525007e-03
 2.302766027086e-03
 2.446737626413e-03
 2.599809427351e-03
 2.762558029281e-03
 2.935596919319e-03
 3.119582470873e-03
 3.315203337446e-03
 3.523206531404e-03
 3.744370988064e-03
 3.979536201444e-03
 4.229592637487e-03
 4.495479190135e-03
 4.778208018988e-03
 5.078839580863e-03
 5.398519312614e-03
 5.738452158482e-03
 6.099919688495e-03
 6.484303895664e-03
 6.893043651357e-03
 7.327692757415e-03
 7.789888990588e-03
 8.281387009390e-03
 8.804048580091e-03
 9.359846684349e-03
 9.950888051505e-03
 1.057940494814e-02
 1.124777964838e-02
 1.195853772641e-02
 1.271437966924e-02
 1.351815265240e-02
 1.437290505784e-02
 1.528187937029e-02
 1.624849940186e-02
 1.727643959203e-02
 1.836958757257e-02
 1.953207993186e-02
 2.076830357549e-02
 2.208295455566e-02
 2.348100650996e-02
 2.496774970940e-02
 2.654879753743e-02
 2.823015793240e-02
 3.001816951122e-02
 3.191961337417e-02
 3.394169627871e-02
 3.609205971331e-02
 3.837884376327e-02
 4.081069113627e-02
 4.339680800389e-02
 4.614697477794e-02
 4.907161508428e-02
 5.218180760438e-02
 5.548931453515e-02
 5.900661626690e-02
 6.274703583460e-02
 6.672475629566e-02
 7.095476241500e-02
 7.545312863813e-02
 8.023679996173e-02
 8.532395862404e-02
 9.073376693368e-02
 9.648674528453e-02
 1.026046270406e-01
 1.091105331190e-01
 1.160290995662e-01
 1.233865379744e-01
 1.312105578574e-01
 1.395307911736e-01
 1.483787662361e-01
 1.577878839828e-01
 1.677937273699e-01
 1.784341541640e-01
 1.897493522568e-01
 2.017821331739e-01
 2.145779974292e-01
 2.281853000876e-01
 2.426554656658e-01
 2.580432732232e-01
 2.744067801114e-01
 2.918079288768e-01
 3.103124613959e-01
 3.299903002098e-01
 3.509158470914e-01
 3.731681672043e-01
 3.968313707860e-01
 4.055996231095e-01
SCALARS H double 1
LOOKUP_TABLE default
 1.106904901085e+02
 2.337104182220e+01
 2.457956867443e+01
 2.586199474265e+01
 2.722267720890e+01
 2.866654537655e+01
 3.019860672944e+01
 3.182495452967e+01
 3.355045634114e+01
 3.538169716827e+01
 3.732548028835e+01
 3.938827807482e+01
 4.157817800760e+01
 4.390238546879e+01
 4.636968997373e+01
 4.898824758768e+01
 5.176892769583e+01
 5.472051193070e+01
 5.785418856159e+01
 6.118174966580e+01
 6.471385478113e+01
 6.846636784981e+01
 7.244898775019e+01
 7.667971355953e+01
 8.117209187601e+01
 8.594163551633e+01
 9.100918689694e+01
 9.638952791539e+01
 1.021071638096e+02
 1.081782356152e+02
 1.146273686976e+02
 1.214808026833e+02
 1.287548743421e+02
 1.364856894952e+02
 1.446971493850e+02
 1.534238970081e+02
 1.626944271433e+02
 1.725416634469e+02
 1.830053170897e+02
 1.941217802746e+02
 2.059354508028e+02
 2.184875857318e+02
 2.318277621608e+02
 2.459976630730e+02
 2.610603170521e+02
 2.770670365829e+02
 2.940714910206e+02
 3.121505376854e+02
 3.313585390278e+02
 3.517695877669e+02
 3.734605702240e+02
 3.965240963844e+02
 4.210311493678e+02
 4.470751200370e+02
 4.747543241054e+02
 5.041853978373e+02
 5.354550914358e+02
 5.687049087918e+02
 6.040452365536e+02
 6.415971376733e+02
 6.815124821963e+02
 7.239382050890e+02
 7.690454550403e+02
 8.169994827539e+02
 8.679867279643e+02
 9.221786402316e+02
 9.797633383061e+02
 1.040963161063e+03
 1.106049428854e+03
 1.175247763360e+03
 1.248776922064e+03
 1.326996127024e+03
 1.410103829592e+03
 1.498509608342e+03
 1.592426139311e+03
 1.692319200118e+03
 1.798481889434e+03
 1.911351440376e+03
 2.031380190704e+03
 2.158974177142e+03
 2.294540358834e+03
 2.438769990156e+03
 2.592137075643e+03
 2.755110825727e+03
 2.928397725545e+03
 3.112641966550e+03
 3.308493394176e+03
 3.516765325505e+03
 3.738186356655e+03
 3.973573275611e+03
 4.223849211473e+03
 4.489988372596e+03
 4.772838772120e+03
 5.073683804172e+03
 5.393476557983e+03
 5.733484373274e+03
 6.095027499605e+03
 6.479406610854e+03
 6.888115195111e+03
 7.322664794983e+03
 4.708014431404e+04
SCALARS Inrt double 1
LOOKUP_TABLE default
 9.989999999797e-01
 9.989403195872e-01
 9.988769315068e-01
 9.988096025321e-01
 9.987380847221e-01
 9.986621144684e-01
 9.985814115041e-01
 9.984956778498e-01
 9.984045966925e-01
 9.983078311943e-01
 9.982050232248e-01
 9.980957920141e-01
 9.979797327198e-01
 9.978564149036e-01
 9.977253809119e-01
 9.975861441527e-01
 9.974381872650e-01
 9.972809601707e-01
 9.971138780048e-01
 9.969363189128e-01
 9.967476217101e-01
 9.965470833929e-01
 9.963339564908e-01
 9.961074462526e-01
 9.958667076536e-01
 9.956108422137e-01
 9.953388946132e-01
 9.950498490960e-01
 9.947426256433e-01
 9.944160759058e-01
 9.940689788792e-01
 9.937000363042e-01
 9.933078677769e-01
 9.928910055484e-01
 9.924478889961e-01
 9.919768587443e-01
 9.914761504129e-01
 9.909438879703e-01
 9.903780766655e-01
 9.897765955124e-01
 9.891371892986e-01
 9.884574600883e-01
 9.877348581868e-01
 9.869666725337e-01
 9.861500204867e-01
 9.852818369600e-01
 9.843588628740e-01
 9.833776328739e-01
 9.823344622712e-01
 9.812254331577e-01
 9.800463796411e-01
 9.787928721452e-01
 9.774602007164e-01
 9.760433572733e-01
 9.745370167321e-01
 9.729355169377e-01
 9.712328373236e-01
 9.694225762203e-01
 9.674979267283e-01
 9.654516510623e-01
 9.632760532715e-01
 9.609629502328e-01
 9.585036408073e-01
 9.558888730442e-01
 9.531088093078e-01
 9.501529891970e-01
 9.470102901170e-01
 9.436688853540e-01
 9.401161994971e-01
 9.363388610353e-01
 9.323226519553e-01
 9.280524541474e-01
 9.235121924176e-01
 9.186847738924e-01
 9.135520235868e-01
 9.080946158918e-01
 9.022920017262e-01
 8.961223310738e-01
 8.895623706177e-01
 8.825874161578e-01
 8.751711994862e-01
 8.672857893628e-01
 8.589014862233e-01
 8.499867102205e-01
 8.405078821765e-01
 8.304292969976e-01
 8.197129890745e-01
 8.083185891600e-01
 7.962031721855e-01
 7.833210954419e-01
 7.696238265144e-01
 7.550597603232e-01
 7.395740245811e-01
 7.231082729321e-01
 7.056004649933e-01
 6.869846324706e-01
 6.671906304655e-01
 6.461438730355e-01
 6.237650520123e-01
 5.999698380167e-01
 5.746685625425e-01
SCALARS O double 1
LOOKUP_TABLE default
 5.534525505425e+01
 1.168552300751e+01
 1.228978651684e+01
 1.293099963955e+01
 1.361134096704e+01
 1.433327515140e+01
 1.509930593495e+01
 1.591247994926e+01
 1.677523097670e+01
 1.769085152002e+01
 1.866274321846e+01
 1.969414225929e+01
 2.078909238317e+01
 2.195119628175e+01
 2.318484871350e+01
 2.449412771173e+01
 2.588446796999e+01
 2.736026030533e+01
 2.892709885338e+01
 3.059087965381e+01
 3.235693247650e+01
 3.423318929395e+01
 3.622449954623e+01
 3.833986277355e+01
 4.058605227624e+01
 4.297082446405e+01
 4.550460054706e+01
 4.819477147542e+01
 5.105358987028e+01
 5.408912625094e+01
 5.731369330229e+01
 6.074041084002e+01
 6.437744725065e+01
 6.824285544790e+01
 7.234858605521e+01
 7.671196057401e+01
 8.134722639643e+01
 8.627084535364e+01
 9.150267303461e+01
 9.706090554422e+01
 1.029677417871e+02
 1.092438102959e+02
 1.159138996247e+02
 1.229988512690e+02
 1.305301795265e+02
 1.385335406442e+02
 1.470357693050e+02
 1.560752941758e+02
 1.656792964870e+02
 1.758848226051e+02