# vtk DataFile Version 3.0
Unstructured Grid from OpenGeoSys
ASCII
DATASET UNSTRUCTURED_GRID
FIELD TimesAndCycles 2
TIME 1 1 double
9.000000000000e+03
CYLCE 1 1 long
90
POINTS 101 double
0.000000000000e+00 0.000000000000e+00 0.000000000000e+00
2.000000000000e-05 0.000000000000e+00 0.000000000000e+00
4.000000000000e-05 0.000000000000e+00 0.000000000000e+00
6.000000000000e-05 0.000000000000e+00 0.000000000000e+00
8.000000000000e-05 0.000000000000e+00 0.000000000000e+00
1.000000000000e-04 0.000000000000e+00 0.000000000000e+00
1.200000000000e-04 0.000000000000e+00 0.000000000000e+00
1.400000000000e-04 0.000000000000e+00 0.000000000000e+00
1.600000000000e-04 0.000000000000e+00 0.000000000000e+00
1.800000000000e-04 0.000000000000e+00 0.000000000000e+00
2.000000000000e-04 0.000000000000e+00 0.000000000000e+00
2.200000000000e-04 0.000000000000e+00 0.000000000000e+00
2.400000000000e-04 0.000000000000e+00 0.000000000000e+00
2.600000000000e-04 0.000000000000e+00 0.000000000000e+00
2.800000000000e-04 0.000000000000e+00 0.000000000000e+00
3.000000000000e-04 0.000000000000e+00 0.000000000000e+00
3.200000000000e-04 0.000000000000e+00 0.000000000000e+00
3.400000000000e-04 0.000000000000e+00 0.000000000000e+00
3.600000000000e-04 0.000000000000e+00 0.000000000000e+00
3.800000000000e-04 0.000000000000e+00 0.000000000000e+00
4.000000000000e-04 0.000000000000e+00 0.000000000000e+00
4.200000000000e-04 0.000000000000e+00 0.000000000000e+00
4.400000000000e-04 0.000000000000e+00 0.000000000000e+00
4.600000000000e-04 0.000000000000e+00 0.000000000000e+00
4.800000000000e-04 0.000000000000e+00 0.000000000000e+00
5.000000000000e-04 0.000000000000e+00 0.000000000000e+00
5.200000000000e-04 0.000000000000e+00 0.000000000000e+00
5.400000000000e-04 0.000000000000e+00 0.000000000000e+00
5.600000000000e-04 0.000000000000e+00 0.000000000000e+00
5.800000000000e-04 0.000000000000e+00 0.000000000000e+00
6.000000000000e-04 0.000000000000e+00 0.000000000000e+00
6.200000000000e-04 0.000000000000e+00 0.000000000000e+00
6.400000000000e-04 0.000000000000e+00 0.000000000000e+00
6.600000000000e-04 0.000000000000e+00 0.000000000000e+00
6.800000000000e-04 0.000000000000e+00 0.000000000000e+00
7.000000000000e-04 0.000000000000e+00 0.000000000000e+00
7.200000000000e-04 0.000000000000e+00 0.000000000000e+00
7.400000000000e-04 0.000000000000e+00 0.000000000000e+00
7.600000000000e-04 0.000000000000e+00 0.000000000000e+00
7.800000000000e-04 0.000000000000e+00 0.000000000000e+00
8.000000000000e-04 0.000000000000e+00 0.000000000000e+00
8.200000000000e-04 0.000000000000e+00 0.000000000000e+00
8.400000000000e-04 0.000000000000e+00 0.000000000000e+00
8.600000000000e-04 0.000000000000e+00 0.000000000000e+00
8.800000000000e-04 0.000000000000e+00 0.000000000000e+00
9.000000000000e-04 0.000000000000e+00 0.000000000000e+00
9.200000000000e-04 0.000000000000e+00 0.000000000000e+00
9.400000000000e-04 0.000000000000e+00 0.000000000000e+00
9.600000000000e-04 0.000000000000e+00 0.000000000000e+00
9.800000000000e-04 0.000000000000e+00 0.000000000000e+00
1.000000000000e-03 0.000000000000e+00 0.000000000000e+00
1.020000000000e-03 0.000000000000e+00 0.000000000000e+00
1.040000000000e-03 0.000000000000e+00 0.000000000000e+00
1.060000000000e-03 0.000000000000e+00 0.000000000000e+00
1.080000000000e-03 0.000000000000e+00 0.000000000000e+00
1.100000000000e-03 0.000000000000e+00 0.000000000000e+00
1.120000000000e-03 0.000000000000e+00 0.000000000000e+00
1.140000000000e-03 0.000000000000e+00 0.000000000000e+00
1.160000000000e-03 0.000000000000e+00 0.000000000000e+00
1.180000000000e-03 0.000000000000e+00 0.000000000000e+00
1.200000000000e-03 0.000000000000e+00 0.000000000000e+00
1.220000000000e-03 0.000000000000e+00 0.000000000000e+00
1.240000000000e-03 0.000000000000e+00 0.000000000000e+00
1.260000000000e-03 0.000000000000e+00 0.000000000000e+00
1.280000000000e-03 0.000000000000e+00 0.000000000000e+00
1.300000000000e-03 0.000000000000e+00 0.000000000000e+00
1.320000000000e-03 0.000000000000e+00 0.000000000000e+00
1.340000000000e-03 0.000000000000e+00 0.000000000000e+00
1.360000000000e-03 0.000000000000e+00 0.000000000000e+00
1.380000000000e-03 0.000000000000e+00 0.000000000000e+00
1.400000000000e-03 0.000000000000e+00 0.000000000000e+00
1.420000000000e-03 0.000000000000e+00 0.000000000000e+00
1.440000000000e-03 0.000000000000e+00 0.000000000000e+00
1.460000000000e-03 0.000000000000e+00 0.000000000000e+00
1.480000000000e-03 0.000000000000e+00 0.000000000000e+00
1.500000000000e-03 0.000000000000e+00 0.000000000000e+00
1.520000000000e-03 0.000000000000e+00 0.000000000000e+00
1.540000000000e-03 0.000000000000e+00 0.000000000000e+00
1.560000000000e-03 0.000000000000e+00 0.000000000000e+00
1.580000000000e-03 0.000000000000e+00 0.000000000000e+00
1.600000000000e-03 0.000000000000e+00 0.000000000000e+00
1.620000000000e-03 0.000000000000e+00 0.000000000000e+00
1.640000000000e-03 0.000000000000e+00 0.000000000000e+00
1.660000000000e-03 0.000000000000e+00 0.000000000000e+00
1.680000000000e-03 0.000000000000e+00 0.000000000000e+00
1.700000000000e-03 0.000000000000e+00 0.000000000000e+00
1.720000000000e-03 0.000000000000e+00 0.000000000000e+00
1.740000000000e-03 0.000000000000e+00 0.000000000000e+00
1.760000000000e-03 0.000000000000e+00 0.000000000000e+00
1.780000000000e-03 0.000000000000e+00 0.000000000000e+00
1.800000000000e-03 0.000000000000e+00 0.000000000000e+00
1.820000000000e-03 0.000000000000e+00 0.000000000000e+00
1.840000000000e-03 0.000000000000e+00 0.000000000000e+00
1.860000000000e-03 0.000000000000e+00 0.000000000000e+00
1.880000000000e-03 0.000000000000e+00 0.000000000000e+00
1.900000000000e-03 0.000000000000e+00 0.000000000000e+00
1.920000000000e-03 0.000000000000e+00 0.000000000000e+00
1.940000000000e-03 0.000000000000e+00 0.000000000000e+00
1.960000000000e-03 0.000000000000e+00 0.000000000000e+00
1.980000000000e-03 0.000000000000e+00 0.000000000000e+00
2.000000000000e-03 0.000000000000e+00 0.000000000000e+00
CELLS 100 300
2 0 1
2 1 2
2 2 3
2 3 4
2 4 5
2 5 6
2 6 7
2 7 8
2 8 9
2 9 10
2 10 11
2 11 12
2 12 13
2 13 14
2 14 15
2 15 16
2 16 17
2 17 18
2 18 19
2 19 20
2 20 21
2 21 22
2 22 23
2 23 24
2 24 25
2 25 26
2 26 27
2 27 28
2 28 29
2 29 30
2 30 31
2 31 32
2 32 33
2 33 34
2 34 35
2 35 36
2 36 37
2 37 38
2 38 39
2 39 40
2 40 41
2 41 42
2 42 43
2 43 44
2 44 45
2 45 46
2 46 47
2 47 48
2 48 49
2 49 50
2 50 51
2 51 52
2 52 53
2 53 54
2 54 55
2 55 56
2 56 57
2 57 58
2 58 59
2 59 60
2 60 61
2 61 62
2 62 63
2 63 64
2 64 65
2 65 66
2 66 67
2 67 68
2 68 69
2 69 70
2 70 71
2 71 72
2 72 73
2 73 74
2 74 75
2 75 76
2 76 77
2 77 78
2 78 79
2 79 80
2 80 81
2 81 82
2 82 83
2 83 84
2 84 85
2 85 86
2 86 87
2 87 88
2 88 89
2 89 90
2 90 91
2 91 92
2 92 93
2 93 94
2 94 95
2 95 96
2 96 97
2 97 98
2 98 99
2 99 100

CELL_TYPES 100
3
3
3
3
3
3
3
3
3
3
3
3
3
3
3
3
3
3
3
3
3
3
3
3
3
3
3
3
3
3
3
3
3
3
3
3
3
3
3
3
3
3
3
3
3
3
3
3
3
3
3
3
3
3
3
3
3
3
3
3
3
3
3
3
3
3
3
3
3
3
3
3
3
3
3
3
3
3
3
3
3
3
3
3
3
3
3
3
3
3
3
3
3
3
3
3
3
3
3
3

POINT_DATA 101
SCALARS HEAD double 1
LOOKUP_TABLE default
1.000000000000e+01
1.000000000000e+01
1.000000000000e+01
1.000000000000e+01
1.000000000000e+01
1.000000000000e+01
1.000000000000e+01
1.000000000000e+01
1.000000000000e+01
1.000000000000e+01
1.000000000000e+01
1.000000000000e+01
1.000000000000e+01
1.000000000000e+01
1.000000000000e+01
1.000000000000e+01
1.000000000000e+01
1.000000000000e+01
1.000000000000e+01
1.000000000000e+01
1.000000000000e+01
1.000000000000e+01
1.000000000000e+01
1.000000000000e+01
1.000000000000e+01
1.000000000000e+01
1.000000000000e+01
1.000000000000e+01
1.000000000000e+01
1.000000000000e+01
1.000000000000e+01
1.000000000000e+01
1.000000000000e+01
1.000000000000e+01
1.000000000000e+01
1.000000000000e+01
1.000000000000e+01
1.000000000000e+01
1.000000000000e+01
1.000000000000e+01
1.000000000000e+01
1.000000000000e+01
1.000000000000e+01
1.000000000000e+01
1.000000000000e+01
1.000000000000e+01
1.000000000000e+01
1.000000000000e+01
1.000000000000e+01
1.000000000000e+01
1.000000000000e+01
1.000000000000e+01
1.000000000000e+01
1.000000000000e+01
1.000000000000e+01
1.000000000000e+01
1.000000000000e+01
1.000000000000e+01
1.000000000000e+01
1.000000000000e+01
1.000000000000e+01
1.000000000000e+01
1.000000000000e+01
1.000000000000e+01
1.000000000000e+01
1.000000000000e+01
1.000000000000e+01
1.000000000000e+01
1.000000000000e+01
1.000000000000e+01
1.000000000000e+01
1.000000000000e+01
1.000000000000e+01
1.000000000000e+01
1.000000000000e+01
1.000000000000e+01
1.000000000000e+01
1.000000000000e+01
1.000000000000e+01
1.000000000000e+01
1.000000000000e+01
1.000000000000e+01
1.000000000000e+01
1.000000000000e+01
1.000000000000e+01
1.000000000000e+01
1.000000000000e+01
1.000000000000e+01
1.000000000000e+01
1.000000000000e+01
1.000000000000e+01
1.000000000000e+01
1.000000000000e+01
1.000000000000e+01
1.000000000000e+01
1.000000000000e+01
1.000000000000e+01
1.000000000000e+01
1.000000000000e+01
1.000000000000e+01
1.000000000000e+01
SCALARS 1-Ael double 1
LOOKUP_TABLE default
1.416641777196e+00
1.421821072055e+00
1.414655774108e+00
1.407561145334e+00
1.400539703448e+00
1.393593755306e+00
1.386725413065e+00
1.379936650907e+00
1.373229224988e+00
1.366604651395e+00
1.360064339151e+00
1.353609504465e+00
1.347241208493e+00
1.340960357905e+00
1.334767684037e+00
1.328663759084e+00
1.322649055823e+00
1.316723928840e+00
1.310888558640e+00
1.305143058464e+00
1.299487386149e+00
1.293921456546e+00
1.288445056865e+00
1.283057849651e+00
1.277759480821e+00
1.272549420279e+00
1.267427142319e+00
1.262392049873e+00
1.257443492997e+00
1.252580769539e+00
1.247803056005e+00
1.243109585121e+00
1.238499427366e+00
1.233971617123e+00
1.229525253109e+00
1.225159381863e+00
1.220873031293e+00
1.216665132939e+00
1.212534626504e+00
1.208480450725e+00
1.204501534262e+00
1.200596800878e+00
1.196765162017e+00
1.193005485833e+00
1.189316651394e+00
1.185697579970e+00
1.182147117769e+00
1.178664156910e+00
1.175247600206e+00
1.171896294088e+00
1.168609114993e+00
1.165384998302e+00
1.162222870327e+00
1.159121609680e+00
1.156080121711e+00
1.153097366081e+00
1.150172283825e+00
1.147303822782e+00
1.144490973487e+00
1.141732676122e+00
1.139027889447e+00
1.136375610576e+00
1.133774866511e+00
1.131224709900e+00
1.128724204263e+00
1.126272405686e+00
1.123868339984e+00
1.121511046602e+00
1.119199639818e+00
1.116933271244e+00
1.114711044997e+00
1.112532114509e+00
1.110395643944e+00
1.108300803188e+00
1.106246770868e+00
1.104232729187e+00
1.102257902766e+00
1.100321501550e+00
1.098422786023e+00
1.096561020576e+00
1.094735434407e+00
1.092945315598e+00
1.091190009021e+00
1.089468805792e+00
1.087781007097e+00
1.086125957613e+00
1.084503000851e+00
1.082911500521e+00
1.081350838715e+00
1.079820393510e+00
1.078319560482e+00
1.076847759637e+00
1.075404403533e+00
1.073988924769e+00
1.072600776003e+00
1.071239403480e+00
1.069904278659e+00
1.068594881317e+00
1.067310699383e+00
1.066051233309e+00
1.063412479773e+00
SCALARS 2-Bel double 1
LOOKUP_TABLE default
5.833582228040e-01
5.781789272854e-01
5.853442240744e-01
5.924388517338e-01
5.994602925638e-01
6.064062396992e-01
6.132745809894e-01
6.200633422473e-01
6.267707673218e-01
6.333953401243e-01
6.399356516261e-01
6.463904856205e-01
6.527587809512e-01
6.590396309478e-01
6.652323042718e-01
6.713362287298e-01
6.773509315407e-01
6.832760581171e-01
6.891114279590e-01
6.948569278151e-01
7.005125998502e-01
7.060785292180e-01
7.115549286944e-01
7.169421357459e-01
7.222405044478e-01
7.274505648941e-01
7.325728427895e-01
7.376079352022e-01
7.425564920745e-01
7.474192155559e-01
7.521969291397e-01
7.568904000973e-01
7.615005579486e-01
7.660283683120e-01
7.704747324636e-01
7.748406038679e-01
7.791269546138e-01
7.833348531601e-01
7.874653598019e-01
7.915195358024e-01
7.954984524986e-01
7.994031861270e-01
8.032348252443e-01
8.069945016933e-01
8.106833364052e-01
8.143024081091e-01
8.178528705968e-01
8.213358317482e-01
8.247523887494e-01
8.281036951679e-01
8.313908745663e-01
8.346149915635e-01
8.377771198453e-01
8.408783808005e-01
8.439198690768e-01
8.469026250151e-01
8.498277075776e-01
8.526961689256e-01
8.555090185237e-01
8.582673161890e-01
8.609721031623e-01
8.636243823273e-01
8.662251266830e-01
8.687752835804e-01
8.712757894994e-01
8.737275883541e-01
8.761316543283e-01
8.784889479780e-01
8.808003550242e-01
8.830667238548e-01
8.852889503524e-01
8.874678810848e-01
8.896043518895e-01
8.916991928776e-01
8.937532254243e-01
8.957672673257e-01
8.977420939611e-01
8.996784953845e-01
9.015772111123e-01
9.034389767542e-01
9.052645631118e-01
9.070546821030e-01
9.088099888558e-01
9.105311922536e-01
9.122189911117e-01
9.138740407524e-01
9.154969976652e-01
9.170884981397e-01
9.186491600846e-01
9.201796054222e-01
9.216804385778e-01
9.231522395437e-01
9.245955957630e-01
9.260110746376e-01
9.273992235085e-01
9.287605961310e-01
9.300957210466e-01
9.314051184776e-01
9.326893004964e-01
9.339487666504e-01
9.365875202274e-01
SCALARS 3-H double 1
LOOKUP_TABLE default
1.994509163545e-04
1.994500902563e-04
1.994500730229e-04
1.995316172530e-04
1.994500834581e-04
1.995316083794e-04
1.994501131901e-04
1.995316655727e-04
1.994500961396e-04
1.994501289023e-04
1.994500943588e-04
1.994500869098e-04
1.995315005854e-04
1.995315900073e-04
1.994501114596e-04
1.994500970171e-04
1.995315005085e-04
1.994500956876e-04
1.994501195342e-04
1.995317087739e-04
1.995314961527e-04
1.994501232822e-04
1.994501196951e-04
1.995316740876e-04
1.994501474986e-04
1.994501194110e-04
1.995316423016e-04
1.995315966387e-04
1.995316455616e-04
1.994501408574e-04
1.995317063291e-04
1.995315758183e-04
1.994501290135e-04
1.995314157938e-04
1.994501454503e-04
1.995316785036e-04
1.995317098577e-04
1.995315652051e-04
1.995314826438e-04
1.994501568356e-04
1.995316752219e-04
1.994501574258e-04
1.994501407107e-04
1.995315052348e-04
1.995315717313e-04
1.995315943576e-04
1.995316577838e-04
1.995315242414e-04
1.995316094023e-04
1.994501641082e-04
1.994501714857e-04
1.994501789509e-04
1.995316646576e-04
1.995314731619e-04
1.995316453507e-04
1.994501714339e-04
1.994501455802e-04
1.995315057576e-04
1.995315484713e-04
1.995316348043e-04
1.994501578515e-04
1.995316337562e-04
1.995314552303e-04
1.995315686793e-04
1.994501419480e-04
1.995315821132e-04
1.995316253429e-04
1.994501470165e-04
1.994501723084e-04
1.995314901030e-04
1.994501695562e-04
1.994501648389e-04
1.994501530827e-04
1.995315644907e-04
1.994501758161e-04
1.994501785635e-04
1.995314790813e-04
1.995315465886e-04
1.994501705954e-04
1.995316051568e-04
1.995316096566e-04
1.995316015811e-04
1.995314388516e-04
1.995315432078e-04
1.994501762468e-04
1.994501707062e-04
1.995315565254e-04
1.995315457731e-04
1.994501810341e-04
1.994501785812e-04
1.995315312081e-04
1.994501581151e-04
1.995315512596e-04
1.994501419205e-04
1.995315629784e-04
1.994501668931e-04
1.995315318095e-04
1.995316107416e-04
1.994501623662e-04
1.994501722212e-04
1.994499886698e-04
SCALARS 4-Inrt double 1
LOOKUP_TABLE default
0.000000000000e+00
0.000000000000e+00
0.000000000000e+00
0.000000000000e+00
0.000000000000e+00
0.000000000000e+00
0.000000000000e+00
0.000000000000e+00
0.000000000000e+00
0.000000000000e+00
0.000000000000e+00
0.000000000000e+00
0.000000000000e+00
0.000000000000e+00
0.000000000000e+00
0.000000000000e+00
0.000000000000e+00
0.000000000000e+00
0.000000000000e+00
0.000000000000e+00
0.000000000000e+00
0.000000000000e+00
0.000000000000e+00
0.000000000000e+00
0.000000000000e+00
0.000000000000e+00
0.000000000000e+00
0.000000000000e+00
0.000000000000e+00
0.000000000000e+00
0.000000000000e+00
0.000000000000e+00
0.000000000000e+00
0.000000000000e+00
0.000000000000e+00
0.000000000000e+00
0.000000000000e+00
0.000000000000e+00
0.000000000000e+00
0.000000000000e+00
0.000000000000e+00
0.000000000000e+00
0.000000000000e+00
0.000000000000e+00
0.000000000000e+00
0.000000000000e+00
0.000000000000e+00
0.000000000000e+00
0.000000000000e+00
0.000000000000e+00
0.000000000000e+00
0.000000000000e+00
0.000000000000e+00
0.000000000000e+00
0.000000000000e+00
0.000000000000e+00
0.000000000000e+00
0.000000000000e+00
0.000000000000e+00
0.000000000000e+00
0.000000000000e+00
0.000000000000e+00
0.000000000000e+00
0.000000000000e+00
0.000000000000e+00
0.000000000000e+00
0.000000000000e+00
0.000000000000e+00
0.000000000000e+00
0.000000000000e+00
0.000000000000e+00
0.000000000000e+00
0.000000000000e+00
0.000000000000e+00
0.000000000000e+00
0.000000000000e+00
0.000000000000e+00
0.000000000000e+00
0.000000000000e+00
0.000000000000e+00
0.000000000000e+00
0.000000000000e+00
0.000000000000e+00
0.000000000000e+00
0.000000000000e+00
0.000000000000e+00
0.000000000000e+00
0.000000000000e+00
0.000000000000e+00
0.000000000000e+00
0.000000000000e+00
0.000000000000e+00
0.000000000000e+00
0.000000000000e+00
0.000000000000e+00
0.000000000000e+00
0.000000000000e+00
0.000000000000e+00
0.000000000000e+00
0.000000000000e+00
0.000000000000e+00
SCALARS 5-O double 1
LOOKUP_TABLE default
1.009972554693e-02
1.008456859322e-02
1.005785746177e-02
1.003241146150e-02
1.000812176299e-02
9.985159648135e-03
9.963364984377e-03
9.942899548581e-03
9.923594287443e-03
9.905561377777e-03
9.888746445219e-03
9.873132477452e-03
9.858739903872e-03
9.845464544135e-03
9.833280789048e-03
9.822242570102e-03
9.812320274433e-03
9.803360713221e-03
9.795453253769e-03
9.788564325988e-03
9.782577355587e-03
9.777457224355e-03
9.773249085832e-03
9.769916469487e-03
9.767300355994e-03
9.765486226816e-03
9.764437344286e-03
9.764035556055e-03
9.764285384541e-03
9.765110191045e-03
9.766596856596e-03
9.768588234930e-03
9.771050348888e-03
9.774071883969e-03
9.777457429286e-03
9.781337935484e-03
9.785560192317e-03
9.790134952965e-03
9.795033214030e-03
9.800186076651e-03
9.805688547437e-03
9.811351369844e-03
9.817271718375e-03
9.823425242574e-03
9.829707514635e-03
9.836136908916e-03
9.842692303679e-03
9.849353338161e-03
9.856100980466e-03
9.862876091004e-03
9.869742913347e-03
9.876644169926e-03
9.883605066700e-03
9.890529504225e-03
9.897444700516e-03
9.904296690456e-03
9.911154899302e-03
9.918008069174e-03
9.924764163148e-03
9.931454191371e-03
9.938028359200e-03
9.944600535724e-03
9.951040719310e-03
9.957382749026e-03
9.963579230306e-03
9.969746516366e-03
9.975757329961e-03
9.981607006643e-03
9.987372789798e-03
9.993050920499e-03
9.998516157618e-03
1.000388769040e-02
1.000912251944e-02
1.001425948118e-02
1.001917494430e-02
1.002398988569e-02
1.002870338479e-02
1.003323374147e-02
1.003758071362e-02
1.004186638902e-02
1.004596920645e-02
1.004993054444e-02
1.005375099019e-02
1.005743195776e-02
1.006093391975e-02
1.006433977573e-02
1.006765117034e-02
1.007078864466e-02
1.007375407186e-02
1.007663095289e-02
1.007942158898e-02
1.008200627329e-02
1.008455011010e-02
1.008689297299e-02
1.008920011913e-02
1.009131156206e-02
1.009339280435e-02
1.009532457866e-02
1.009710961296e-02
1.009883217960e-02
1.009972507400e-02
SCALARS 6-Zz double 1
LOOKUP_TABLE default
0.000000000000e+00
0.000000000000e+00
0.000000000000e+00
0.000000000000e+00
0.000000000000e+00
0.000000000000e+00
0.000000000000e+00
0.000000000000e+00
0.000000000000e+00
0.000000000000e+00
0.000000000000e+00
0.000000000000e+00
0.000000000000e+00
0.000000000000e+00
0.000000000000e+00
0.000000000000e+00
0.000000000000e+00
0.000000000000e+00
0.000000000000e+00
0.000000000000e+00
0.000000000000e+00
0.000000000000e+00
0.000000000000e+00
0.000000000000e+00
0.000000000000e+00
0.000000000000e+00
0.000000000000e+00
0.000000000000e+00
0.000000000000e+00
0.000000000000e+00
0.000000000000e+00
0.000000000000e+00
0.000000000000e+00
0.000000000000e+00
0.000000000000e+00
0.000000000000e+00
0.000000000000e+00
0.000000000000e+00
0.000000000000e+00
0.000000000000e+00
0.000000000000e+00
0.000000000000e+00
0.000000000000e+00
0.000000000000e+00
0.000000000000e+00
0.000000000000e+00
0.000000000000e+00
0.000000000000e+00
0.000000000000e+00
0.000000000000e+00
0.000000000000e+00
0.000000000000e+00
0.000000000000e+00
0.000000000000e+00
0.000000000000e+00
0.000000000000e+00
0.000000000000e+00
0.000000000000e+00
0.000000000000e+00
0.000000000000e+00
0.000000000000e+00
0.000000000000e+00
0.000000000000e+00
0.000000000000e+00
0.000000000000e+00
0.000000000000e+00
0.000000000000e+00
0.000000000000e+00
0.000000000000e+00
0.000000000000e+00
0.000000000000e+00
0.000000000000e+00
0.000000000000e+00
0.000000000000e+00
0.000000000000e+00
0.000000000000e+00
0.000000000000e+00
0.000000000000e+00
0.000000000000e+00
0.000000000000e+00
0.000000000000e+00
0.000000000000e+00
0.000000000000e+00
0.000000000000e+00
0.000000000000e+00
0.000000000000e+00
0.000000000000e+00
0.000000000000e+00
0.000000000000e+00
0.000000000000e+00
0.000000000000e+00
0.000000000000e+00
0.000000000000e+00
0.000000000000e+00
0.000000000000e+00
0.000000000000e+00
0.000000000000e+00
0.000000000000e+00
0.000000000000e+00
0.000000000000e+00
0.000000000000e+00
SCALARS Ael double 1
LOOKUP_TABLE default
 1.416641805983e-03
 1.104075089109e-03
 1.168627662747e-03
 1.237177410905e-03
 1.309973999884e-03
 1.387283387960e-03
 1.469387900412e-03
 1.556588966948e-03
 1.649204343908e-03
 1.747574181324e-03
 1.852059733640e-03
 1.963043872680e-03
 2.080935464325e-03
 2.206167094464e-03
 2.339200308912e-03
 2.480524103082e-03
 2.630661362884e-03
 2.790164196507e-03
 2.959622061797e-03
 3.139661450260e-03
 3.330946062724e-03
 3.534187059939e-03
 3.750131843004e-03
 3.979584148865e-03
 4.223391915355e-03
 4.482457994633e-03
 4.757746986869e-03
 5.050276418243e-03
 5.361137379374e-03
 5.691479584811e-03
 6.042533042782e-03
 6.415605357096e-03
 6.812075697138e-03
 7.233428177430e-03
 7.681227035092e-03
 8.157143766022e-03
 8.662948025245e-03
 9.200523728688e-03
 9.771877802784e-03
 1.037913909278e-02
 1.102457563024e-02
 1.171059399665e-02
 1.243975734969e-02
 1.321478248553e-02
 1.403857194603e-02
 1.491420002611e-02
 1.584493495411e-02
 1.683426538168e-02
 1.788588153245e-02
 1.900371820027e-02
 2.019195760075e-02
 2.145505317829e-02
 2.279772248262e-02
 2.422499279800e-02
 2.574220860865e-02
 2.735505932960e-02
 2.906957240651e-02
 3.089218479270e-02
 3.282971768020e-02
 3.488942609424e-02
 3.707903640055e-02
 3.940675570394e-02
 4.188131776541e-02
 4.451200004271e-02
 4.730867209779e-02
 5.028181478140e-02
 5.344257514648e-02
 5.680281591577e-02
 6.037516559185e-02
 6.417302268670e-02
 6.821062465061e-02
 7.250316411558e-02
 7.706671656695e-02
 8.191845750960e-02
 8.707655776426e-02
 9.256043417698e-02
 9.839065178139e-02
 1.045891257320e-01
 1.111791520996e-01
 1.181854731126e-01
 1.256343885733e-01
 1.335539535473e-01
 1.419739053313e-01
 1.509258525460e-01
 1.604434738979e-01
 1.705625426846e-01
 1.813210847469e-01
 1.927595705986e-01
 2.049209887334e-01
 2.178510612845e-01
 2.315984197121e-01
 2.462147699389e-01
 2.617550363853e-01
 2.782777267585e-01
 2.958449361687e-01
 3.145227593680e-01
 3.343814654574e-01
 3.554957432975e-01
 3.779450367982e-01
 4.018137977873e-01
 4.523027586321e-01
SCALARS Bel double 1
LOOKUP_TABLE default
 5.833582346580e-04
 1.015285736401e-03
 1.077509323519e-03
 1.143617524515e-03
 1.213856555382e-03
 1.288487674550e-03
 1.367789090517e-03
 1.452055332540e-03
 1.541602270006e-03
 1.636763428875e-03
 1.737893815299e-03
 1.845372097459e-03
 1.959599094282e-03
 2.081003096241e-03
 2.210037865119e-03
 2.347187589065e-03
 2.492964104514e-03
 2.647915459083e-03
 2.812621925461e-03
 2.987700720823e-03
 3.173810513357e-03
 3.371646150267e-03
 3.581955171147e-03
 3.805523341415e-03
 4.043192772584e-03
 4.295857572989e-03
 4.564463781288e-03
 4.850025383989e-03
 5.153611328107e-03
 5.476368597215e-03
 5.819509192142e-03
 6.184322027388e-03
 6.572188741631e-03
 6.984560717955e-03
 7.422994964571e-03
 7.889138736944e-03
 8.384751140158e-03
 8.911700321449e-03
 9.471968856528e-03
 1.006766987239e-02
 1.070104576206e-02
 1.137448581592e-02
 1.209052626538e-02
 1.285187243544e-02
 1.366138706849e-02
 1.452212604136e-02
 1.543733928494e-02
 1.641046885701e-02
 1.744519391128e-02
 1.854541546995e-02
 1.971528310221e-02
 2.095920251605e-02
 2.228187606889e-02
 2.368829263942e-02
 2.518375791070e-02
 2.677390677801e-02
 2.846475292899e-02
 3.026266274904e-02
 3.217442884511e-02
 3.420727176272e-02
 3.636885703754e-02
 3.866734381119e-02
 4.111140060041e-02
 4.371025384898e-02
 4.647370926629e-02
 4.941220680411e-02
 5.253684459880e-02
 5.585941335514e-02
 5.939243539272e-02
 6.314925522134e-02
 6.714407141718e-02
 7.139192756796e-02
 7.590889857593e-02
 8.071199468367e-02
 8.581939504026e-02
 9.125033401745e-02
 9.702534474440e-02
 1.031662120986e-01
 1.096961066435e-01
 1.166396945504e-01
 1.240232124332e-01
 1.318744677063e-01
 1.402231222018e-01
 1.491007269931e-01
 1.585407617296e-01
 1.685788633013e-01
 1.792529370860e-01
 1.906032510640e-01
 2.026726668790e-01
 2.155067478159e-01
 2.291539272445e-01
 2.436657094011e-01
 2.590969144401e-01
 2.755057273662e-01
 2.929541338350e-01
 3.115079756826e-01
 3.312372736050e-01
 3.522165106266e-01
 3.745248591740e-01
 3.982465261782e-01
 3.983601162830e-01
SCALARS H double 1
LOOKUP_TABLE default
 1.106904901085e+02
 1.164965125449e+01
 1.216181473430e+01
 1.270507451524e+01
 1.328118872364e+01
 1.389217374272e+01
 1.454006045401e+01
 1.522737920408e+01
 1.595604680286e+01
 1.672877866712e+01
 1.754836525422e+01
 1.841741512086e+01
 1.933926837007e+01
 2.031682500865e+01
 2.135369452718e+01
 2.245316553295e+01
 2.361974442377e+01
 2.485695025864e+01
 2.616937175564e+01
 2.756183781993e+01
 2.903863585160e+01
 3.060636071414e+01
 3.226881001780e+01
 3.403345873909e+01
 3.590576015340e+01
 3.789201097701e+01
 4.000082349349e+01
 4.223810166849e+01
 4.461398313534e+01
 4.713490188366e+01
 4.981096402741e+01
 5.265293003029e+01
 5.566722684613e+01
 5.886880665222e+01
 6.226729460443e+01
 6.587690545236e+01
 6.970916258111e+01
 7.377745220062e+01
 7.809801914475e+01
 8.268564002602e+01
 8.755845787820e+01
 9.273322728412e+01
 9.823018875892e+01
 1.040661854518e+02
 1.102670489536e+02
 1.168535945334e+02
 1.238475874848e+02
 1.312805085523e+02
 1.391743064307e+02
 1.475591771008e+02
 1.564664263457e+02
 1.659338839002e+02
 1.759902581550e+02
 1.866735791545e+02
 1.980238671353e+02
 2.100887148582e+02
 2.229031869413e+02
 2.365250916330e+02
 2.509992052877e+02
 2.663746849460e+02
 2.827134130311e+02
 3.000751412059e+02
 3.185295820241e+02
 3.381439188517e+02
 3.589940277545e+02
 3.811495023346e+02
 4.046867589093e+02
 4.296962723294e+02
 4.562886396919e+02
 4.845554939137e+02
 5.145855637859e+02
 5.465253802898e+02
 5.804551314608e+02
 6.165418565867e+02
 6.548714461830e+02
 6.956338219053e+02
 7.389477764525e+02
 7.849912510435e+02
 8.339482626880e+02
 8.859837019755e+02
 9.412627487227e+02
 1.000067102603e+03
 1.062589195348e+03
 1.129019405098e+03
 1.199645248429e+03
 1.274728565050e+03
 1.354533385514e+03
 1.439390542567e+03
 1.529596038145e+03
 1.625481837888e+03
 1.727423268271e+03
 1.835816388249e+03
 1.951005510345e+03
 2.073512791760e+03
 2.203725202512e+03
 2.342157989524e+03
 2.489347834284e+03
 2.645823249970e+03
 2.812191322761e+03
 2.989066326608e+03
 4.708014431404e+04
SCALARS Inrt double 1
LOOKUP_TABLE default
 9.989999999797e-01
 9.989403195872e-01
 9.988769315068e-01
 9.988096025321e-01
 9.987380847221e-01
 9.986621144684e-01
 9.985814115041e-01
 9.984956778498e-01
 9.984045966925e-01
 9.983078311943e-01
 9.982050232248e-01
 9.980957920141e-01
 9.979797327198e-01
 9.978564149036e-01
 9.977253809119e-01
 9.975861441527e-01
 9.974381872650e-01
 9.972809601707e-01
 9.971138780048e-01
 9.969363189128e-01
 9.967476217101e-01
 9.965470833929e-01
 9.963339564908e-01
 9.961074462526e-01
 9.958667076536e-01
 9.956108422137e-01
 9.953388946132e-01
 9.950498490960e-01
 9.947426256433e-01
 9.944160759058e-01
 9.940689788792e-01
 9.937000363042e-01
 9.933078677769e-01
 9.928910055484e-01
 9.924478889961e-01
 9.919768587443e-01
 9.914761504129e-01
 9.909438879703e-01
 9.903780766655e-01
 9.897765955124e-01
 9.891371892986e-01
 9.884574600883e-01
 9.877348581868e-01
 9.869666725337e-01
 9.861500204867e-01
 9.852818369600e-01
 9.843588628740e-01
 9.833776328739e-01
 9.823344622712e-01
 9.812254331577e-01
 9.800463796411e-01
 9.787928721452e-01
 9.774602007164e-01
 9.760433572733e-01
 9.745370167321e-01
 9.729355169377e-01
 9.712328373236e-01
 9.694225762203e-01
 9.674979267283e-01
 9.654516510623e-01
 9.632760532715e-01
 9.609629502328e-01
 9.585036408073e-01
 9.558888730442e-01
 9.531088093078e-01
 9.501529891970e-01
 9.470102901170e-01
 9.436688853540e-01
 9.401161994971e-01
 9.363388610353e-01
 9.323226519553e-01
 9.280524541474e-01
 9.235121924176e-01
 9.186847738924e-01
 9.135520235868e-01
 9.080946158918e-01
 9.022920017262e-01
 8.961223310738e-01
 8.895623706177e-01
 8.825874161578e-01
 8.751711994862e-01
 8.672857893628e-01
 8.589014862233e-01
 8.499867102205e-01
 8.405078821765e-01
 8.304292969976e-01
 8.197129890745e-01
 8.083185891600e-01
 7.962031721855e-01
 7.833210954419e-01
 7.696238265144e-01
 7.550597603232e-01
 7.395740245811e-01
 7.231082729321e-01
 7.056004649933e-01
 6.869846324706e-01
 6.671906304655e-01
 6.461438730355e-01
 6.237650520123e-01
 5.999698380167e-01
 5.746685625425e-01
SCALARS O double 1
LOOKUP_TABLE default
 5.534525505425e+01
 5.824826678102e+00
 6.080908461275e+00
 6.352538397689e+00
 6.640595550676e+00
 6.946088112024e+00
 7.270031522670e+00
 7.613690956133e+00
 7.978024817541e+00
 8.364390815529e+00
 8.774184179016e+00
 9.208709186592e+00
 9.669635890072e+00
 1.015841429311e+01
 1.067684914133e+01
 1.122658473865e+01
 1.180987428441e+01
 1.242847730840e+01
 1.308468817008e+01
 1.378092132247e+01
 1.451932046600e+01
 1.530318303300e+01
 1.613440782895e+01
 1.701673234278e+01
 1.795288321267e+01
 1.894600879732e+01
 2.000041523932e+01
 2.111905452201e+01
 2.230699546297e+01
 2.356745505760e+01
 2.490548636380e+01
 2.632646961438e+01
 2.783361828686e+01
 2.943440847122e+01
 3.113365274628e+01
 3.293845848812e+01
 3.485458739034e+01
 3.688873255914e+01
 3.904901641290e+01
 4.134282725924e+01
 4.377923661668e+01
 4.636662177818e+01
 4.911510300311e+01
 5.203310186767e+01
 5.513353416953e+01
 5.842680754516e+01
 6.192380464342e+01
 6.564026583930e+01
 6.958716548227e+01
 7.377960156545e+01