# vtk DataFile Version 3.0
Unstructured Grid from OpenGeoSys
ASCII
DATASET UNSTRUCTURED_GRID
FIELD TimesAndCycles 2
TIME 1 1 double
7.000000000000e+03
CYLCE 1 1 long
70
POINTS 101 double
0.000000000000e+00 0.000000000000e+00 0.000000000000e+00
2.000000000000e-05 0.000000000000e+00 0.000000000000e+00
4.000000000000e-05 0.000000000000e+00 0.000000000000e+00
6.000000000000e-05 0.000000000000e+00 0.000000000000e+00
8.000000000000e-05 0.000000000000e+00 0.000000000000e+00
1.000000000000e-04 0.000000000000e+00 0.000000000000e+00
1.200000000000e-04 0.000000000000e+00 0.000000000000e+00
1.400000000000e-04 0.000000000000e+00 0.000000000000e+00
1.600000000000e-04 0.000000000000e+00 0.000000000000e+00
1.800000000000e-04 0.000000000000e+00 0.000000000000e+00
2.000000000000e-04 0.000000000000e+00 0.000000000000e+00
2.200000000000e-04 0.000000000000e+00 0.000000000000e+00
2.400000000000e-04 0.000000000000e+00 0.000000000000e+00
2.600000000000e-04 0.000000000000e+00 0.000000000000e+00
2.800000000000e-04 0.000000000000e+00 0.000000000000e+00
3.000000000000e-04 0.000000000000e+00 0.000000000000e+00
3.200000000000e-04 0.000000000000e+00 0.000000000000e+00
3.400000000000e-04 0.000000000000e+00 0.000000000000e+00
3.600000000000e-04 0.000000000000e+00 0.000000000000e+00
3.800000000000e-04 0.000000000000e+00 0.000000000000e+00
4.000000000000e-04 0.000000000000e+00 0.000000000000e+00
4.200000000000e-04 0.000000000000e+00 0.000000000000e+00
4.400000000000e-04 0.000000000000e+00 0.000000000000e+00
4.600000000000e-04 0.000000000000e+00 0.000000000000e+00
4.800000000000e-04 0.000000000000e+00 0.000000000000e+00
5.000000000000e-04 0.000000000000e+00 0.000000000000e+00
5.200000000000e-04 0.000000000000e+00 0.000000000000e+00
5.400000000000e-04 0.000000000000e+00 0.000000000000e+00
5.600000000000e-04 0.000000000000e+00 0.000000000000e+00
5.800000000000e-04 0.000000000000e+00 0.000000000000e+00
6.000000000000e-04 0.000000000000e+00 0.000000000000e+00
6.200000000000e-04 0.000000000000e+00 0.000000000000e+00
6.400000000000e-04 0.000000000000e+00 0.000000000000e+00
6.600000000000e-04 0.000000000000e+00 0.000000000000e+00
6.800000000000e-04 0.000000000000e+00 0.000000000000e+00
7.000000000000e-04 0.000000000000e+00 0.000000000000e+00
7.200000000000e-04 0.000000000000e+00 0.000000000000e+00
7.400000000000e-04 0.000000000000e+00 0.000000000000e+00
7.600000000000e-04 0.000000000000e+00 0.000000000000e+00
7.800000000000e-04 0.000000000000e+00 0.000000000000e+00
8.000000000000e-04 0.000000000000e+00 0.000000000000e+00
8.200000000000e-04 0.000000000000e+00 0.000000000000e+00
8.400000000000e-04 0.000000000000e+00 0.000000000000e+00
8.600000000000e-04 0.000000000000e+00 0.000000000000e+00
8.800000000000e-04 0.000000000000e+00 0.000000000000e+00
9.000000000000e-04 0.000000000000e+00 0.000000000000e+00
9.200000000000e-04 0.000000000000e+00 0.000000000000e+00
9.400000000000e-04 0.000000000000e+00 0.000000000000e+00
9.600000000000e-04 0.000000000000e+00 0.000000000000e+00
9.800000000000e-04 0.000000000000e+00 0.000000000000e+00
1.000000000000e-03 0.000000000000e+00 0.000000000000e+00
1.020000000000e-03 0.000000000000e+00 0.000000000000e+00
1.040000000000e-03 0.000000000000e+00 0.000000000000e+00
1.060000000000e-03 0.000000000000e+00 0.000000000000e+00
1.080000000000e-03 0.000000000000e+00 0.000000000000e+00
1.100000000000e-03 0.000000000000e+00 0.000000000000e+00
1.120000000000e-03 0.000000000000e+00 0.000000000000e+00
1.140000000000e-03 0.000000000000e+00 0.000000000000e+00
1.160000000000e-03 0.000000000000e+00 0.000000000000e+00
1.180000000000e-03 0.000000000000e+00 0.000000000000e+00
1.200000000000e-03 0.000000000000e+00 0.000000000000e+00
1.220000000000e-03 0.000000000000e+00 0.000000000000e+00
1.240000000000e-03 0.000000000000e+00 0.000000000000e+00
1.260000000000e-03 0.000000000000e+00 0.000000000000e+00
1.280000000000e-03 0.000000000000e+00 0.000000000000e+00
1.300000000000e-03 0.000000000000e+00 0.000000000000e+00
1.320000000000e-03 0.000000000000e+00 0.000000000000e+00
1.340000000000e-03 0.000000000000e+00 0.000000000000e+00
1.360000000000e-03 0.000000000000e+00 0.000000000000e+00
1.380000000000e-03 0.000000000000e+00 0.000000000000e+00
1.400000000000e-03 0.000000000000e+00 0.000000000000e+00
1.420000000000e-03 0.000000000000e+00 0.000000000000e+00
1.440000000000e-03 0.000000000000e+00 0.000000000000e+00
1.460000000000e-03 0.000000000000e+00 0.000000000000e+00
1.480000000000e-03 0.000000000000e+00 0.000000000000e+00
1.500000000000e-03 0.000000000000e+00 0.000000000000e+00
1.520000000000e-03 0.000000000000e+00 0.000000000000e+00
1.540000000000e-03 0.000000000000e+00 0.000000000000e+00
1.560000000000e-03 0.000000000000e+00 0.000000000000e+00
1.580000000000e-03 0.000000000000e+00 0.000000000000e+00
1.600000000000e-03 0.000000000000e+00 0.000000000000e+00
1.620000000000e-03 0.000000000000e+00 0.000000000000e+00
1.640000000000e-03 0.000000000000e+00 0.000000000000e+00
1.660000000000e-03 0.000000000000e+00 0.000000000000e+00
1.680000000000e-03 0.000000000000e+00 0.000000000000e+00
1.700000000000e-03 0.000000000000e+00 0.000000000000e+00
1.720000000000e-03 0.000000000000e+00 0.000000000000e+00
1.740000000000e-03 0.000000000000e+00 0.000000000000e+00
1.760000000000e-03 0.000000000000e+00 0.000000000000e+00
1.780000000000e-03 0.000000000000e+00 0.000000000000e+00
1.800000000000e-03 0.000000000000e+00 0.000000000000e+00
1.820000000000e-03 0.000000000000e+00 0.000000000000e+00
1.840000000000e-03 0.000000000000e+00 0.000000000000e+00
1.860000000000e-03 0.000000000000e+00 0.000000000000e+00
1.880000000000e-03 0.000000000000e+00 0.000000000000e+00
1.900000000000e-03 0.000000000000e+00 0.000000000000e+00
1.920000000000e-03 0.000000000000e+00 0.000000000000e+00
1.940000000000e-03 0.000000000000e+00 0.000000000000e+00
1.960000000000e-03 0.000000000000e+00 0.000000000000e+00
1.980000000000e-03 0.000000000000e+00 0.000000000000e+00
2.000000000000e-03 0.000000000000e+00 0.000000000000e+00
CELLS 100 300
2 0 1
2 1 2
2 2 3
2 3 4
2 4 5
2 5 6
2 6 7
2 7 8
2 8 9
2 9 10
2 10 11
2 11 12
2 12 13
2 13 14
2 14 15
2 15 16
2 16 17
2 17 18
2 18 19
2 19 20
2 20 21
2 21 22
2 22 23
2 23 24
2 24 25
2 25 26
2 26 27
2 27 28
2 28 29
2 29 30
2 30 31
2 31 32
2 32 33
2 33 34
2 34 35
2 35 36
2 36 37
2 37 38
2 38 39
2 39 40
2 40 41
2 41 42
2 42 43
2 43 44
2 44 45
2 45 46
2 46 47
2 47 48
2 48 49
2 49 50
2 50 51
2 51 52
2 52 53
2 53 54
2 54 55
2 55 56
2 56 57
2 57 58
2 58 59
2 59 60
2 60 61
2 61 62
2 62 63
2 63 64
2 64 65
2 65 66
2 66 67
2 67 68
2 68 69
2 69 70
2 70 71
2 71 72
2 72 73
2 73 74
2 74 75
2 75 76
2 76 77
2 77 78
2 78 79
2 79 80
2 80 81
2 81 82
2 82 83
2 83 84
2 84 85
2 85 86
2 86 87
2 87 88
2 88 89
2 89 90
2 90 91
2 91 92
2 92 93
2 93 94
2 94 95
2 95 96
2 96 97
2 97 98
2 98 99
2 99 100

CELL_TYPES 100
3
3
3
3
3
3
3
3
3
3
3
3
3
3
3
3
3
3
3
3
3
3
3
3
3
3
3
3
3
3
3
3
3
3
3
3
3
3
3
3
3
3
3
3
3
3
3
3
3
3
3
3
3
3
3
3
3
3
3
3
3
3
3
3
3
3
3
3
3
3
3
3
3
3
3
3
3
3
3
3
3
3
3
3
3
3
3
3
3
3
3
3
3
3
3
3
3
3
3
3

POINT_DATA 101
SCALARS HEAD double 1
LOOKUP_TABLE default
1.000000000000e+01
1.000000000000e+01
1.000000000000e+01
1.000000000000e+01
1.000000000000e+01
1.000000000000e+01
1.000000000000e+01
1.000000000000e+01
1.000000000000e+01
1.000000000000e+01
1.000000000000e+01
1.000000000000e+01
1.000000000000e+01
1.000000000000e+01
1.000000000000e+01
1.000000000000e+01
1.000000000000e+01
1.000000000000e+01
1.000000000000e+01
1.000000000000e+01
1.000000000000e+01
1.000000000000e+01
1.000000000000e+01
1.000000000000e+01
1.000000000000e+01
1.000000000000e+01
1.000000000000e+01
1.000000000000e+01
1.000000000000e+01
1.000000000000e+01
1.000000000000e+01
1.000000000000e+01
1.000000000000e+01
1.000000000000e+01
1.000000000000e+01
1.000000000000e+01
1.000000000000e+01
1.000000000000e+01
1.000000000000e+01
1.000000000000e+01
1.000000000000e+01
1.000000000000e+01
1.000000000000e+01
1.000000000000e+01
1.000000000000e+01
1.000000000000e+01
1.000000000000e+01
1.000000000000e+01
1.000000000000e+01
1.000000000000e+01
1.000000000000e+01
1.000000000000e+01
1.000000000000e+01
1.000000000000e+01
1.000000000000e+01
1.000000000000e+01
1.000000000000e+01
1.000000000000e+01
1.000000000000e+01
1.000000000000e+01
1.000000000000e+01
1.000000000000e+01
1.000000000000e+01
1.000000000000e+01
1.000000000000e+01
1.000000000000e+01
1.000000000000e+01
1.000000000000e+01
1.000000000000e+01
1.000000000000e+01
1.000000000000e+01
1.000000000000e+01
1.000000000000e+01
1.000000000000e+01
1.000000000000e+01
1.000000000000e+01
1.000000000000e+01
1.000000000000e+01
1.000000000000e+01
1.000000000000e+01
1.000000000000e+01
1.000000000000e+01
1.000000000000e+01
1.000000000000e+01
1.000000000000e+01
1.000000000000e+01
1.000000000000e+01
1.000000000000e+01
1.000000000000e+01
1.000000000000e+01
1.000000000000e+01
1.000000000000e+01
1.000000000000e+01
1.000000000000e+01
1.000000000000e+01
1.000000000000e+01
1.000000000000e+01
1.000000000000e+01
1.000000000000e+01
1.000000000000e+01
1.000000000000e+01
SCALARS 1-Ael double 1
LOOKUP_TABLE default
1.355660086976e+00
1.360342100021e+00
1.353615813876e+00
1.346989057684e+00
1.340462392679e+00
1.334036210618e+00
1.327710754299e+00
1.321486173874e+00
1.315362457454e+00
1.309339414672e+00
1.303416801296e+00
1.297594243356e+00
1.291871273195e+00
1.286247331857e+00
1.280721751411e+00
1.275293770901e+00
1.269962589663e+00
1.264727350978e+00
1.259587092415e+00
1.254540840205e+00
1.249587531226e+00
1.244726110729e+00
1.239955457891e+00
1.235274387219e+00
1.230681742124e+00
1.226176255210e+00
1.221756703564e+00
1.217421842023e+00
1.213170417451e+00
1.209001168453e+00
1.204912764615e+00
1.200903957476e+00
1.196973392506e+00
1.193119715579e+00
1.189341657383e+00
1.185637932392e+00
1.182007266394e+00
1.178448329426e+00
1.174959823255e+00
1.171540472431e+00
1.168189015314e+00
1.164904207395e+00
1.161684813917e+00
1.158529582981e+00
1.155437290035e+00
1.152406763167e+00
1.149436783903e+00
1.146526187656e+00
1.143673833432e+00
1.140878546978e+00
1.138139192259e+00
1.135454694687e+00
1.132823983752e+00
1.130245960255e+00
1.127719557707e+00
1.125243764533e+00
1.122817562948e+00
1.120439949502e+00
1.118109964382e+00
1.115826613807e+00
1.113588926739e+00
1.111395970800e+00
1.109246844786e+00
1.107140674761e+00
1.105076601465e+00
1.103053764887e+00
1.101071285157e+00
1.099128298495e+00
1.097224007328e+00
1.095357649049e+00
1.093528425901e+00
1.091735584459e+00
1.089978383665e+00
1.088256090448e+00
1.086567982067e+00
1.084913341640e+00
1.083291489911e+00
1.081701738154e+00
1.080143441574e+00
1.078615960861e+00
1.077118629997e+00
1.075650833295e+00
1.074212003533e+00
1.072801531194e+00
1.071418816710e+00
1.070063297744e+00
1.068734412494e+00
1.067431617102e+00
1.066154384078e+00
1.064902183891e+00
1.063674502503e+00
1.062470846965e+00
1.061290719276e+00
1.060133638802e+00
1.058999142234e+00
1.057886761892e+00
1.056796051521e+00
1.055726572438e+00
1.054677893345e+00
1.053649593868e+00
1.051490730761e+00
SCALARS 2-Bel double 1
LOOKUP_TABLE default
6.443399130236e-01
6.396578989256e-01
6.463841833140e-01
6.530109378377e-01
6.595376012623e-01
6.659637818294e-01
6.722892367387e-01
6.785138158427e-01
6.846375310213e-01
6.906605726470e-01
6.965831849458e-01
7.024057418886e-01
7.081287111276e-01
7.137526516208e-01
7.192782312946e-01
7.247062111053e-01
7.300373917094e-01
7.352726298299e-01
7.404128878925e-01
7.454591396635e-01
7.504124482627e-01
7.552738684384e-01
7.600445210104e-01
7.647255914679e-01
7.693182363999e-01
7.738237231987e-01
7.782432747735e-01
7.825781362887e-01
7.868295608764e-01
7.909988099266e-01
7.950872138556e-01
7.990960211192e-01
8.030265862462e-01
8.068802633602e-01
8.106583217720e-01
8.143620470048e-01
8.179927132682e-01
8.215516505254e-01
8.250401570050e-01
8.284595081582e-01
8.318109656209e-01
8.350957739009e-01
8.383151677543e-01
8.414703990785e-01
8.445626924236e-01
8.475932197006e-01
8.505631993820e-01
8.534737960535e-01
8.563261507085e-01
8.591214375970e-01
8.618607927556e-01
8.645452907694e-01
8.671760021478e-01
8.697540260890e-01
8.722804290809e-01
8.747562226980e-01
8.771824247245e-01
8.795600386089e-01
8.818900241646e-01
8.841733751712e-01
8.864110626665e-01
8.886040190283e-01
8.907531454591e-01
8.928593158946e-01
8.949233895961e-01
8.969462265719e-01
8.989287066919e-01
9.008716937373e-01
9.027759852801e-01
9.046423439265e-01
9.064715674341e-01
9.082644092263e-01
9.100216103631e-01
9.117439039130e-01
9.134320126183e-01
9.150866533611e-01
9.167085053962e-01
9.182982574504e-01
9.198565543186e-01
9.213840353106e-01
9.228813664451e-01
9.243491634073e-01
9.257879934212e-01
9.271984660030e-01
9.285811807206e-01
9.299366999111e-01
9.312655853771e-01
9.325683809768e-01
9.338456141994e-01
9.350978145763e-01
9.363254961463e-01
9.375291518581e-01
9.387092797130e-01
9.398663603451e-01
9.410008570625e-01
9.421132375472e-01
9.432039480536e-01
9.442734272652e-01
9.453221064785e-01
9.463504060696e-01
9.485092692392e-01
SCALARS 3-H double 1
LOOKUP_TABLE default
1.994509163545e-04
1.995315481879e-04
1.994500812232e-04
1.995315017212e-04
1.994501110330e-04
1.995315124527e-04
1.995316592090e-04
1.995317262626e-04
1.995315273134e-04
1.994500946155e-04
1.994501290326e-04
1.994501127964e-04
1.994501199114e-04
1.995316756900e-04
1.995316788310e-04
1.995314043601e-04
1.995317005531e-04
1.994501153568e-04
1.994501371011e-04
1.995317141784e-04
1.994501646689e-04
1.994501428645e-04
1.995314625662e-04
1.994501332034e-04
1.994501441349e-04
1.994501497654e-04
1.994501347935e-04
1.995315958855e-04
1.994501583313e-04
1.994501191735e-04
1.994501398779e-04
1.994501536017e-04
1.994501558334e-04
1.994501621657e-04
1.994501520961e-04
1.995316651517e-04
1.994501374457e-04
1.994501419695e-04
1.994501416566e-04
1.994501687602e-04
1.995315134863e-04
1.995316378650e-04
1.995316439384e-04
1.995314446037e-04
1.994501569178e-04
1.995315792252e-04
1.994501702000e-04
1.994501651690e-04
1.995314605089e-04
1.995315843111e-04
1.995314507026e-04
1.995316389537e-04
1.995316303060e-04
1.994501806989e-04
1.994501644260e-04
1.995314548107e-04
1.994501662426e-04
1.994501661725e-04
1.995316339991e-04
1.995315791747e-04
1.994501633157e-04
1.995315565832e-04
1.995314536356e-04
1.994501265461e-04
1.994501684420e-04
1.994501726556e-04
1.994501593867e-04
1.995315073814e-04
1.995315419286e-04
1.995316036678e-04
1.994501600423e-04
1.995314872325e-04
1.995314534686e-04
1.995315060389e-04
1.994501484613e-04
1.995315321909e-04
1.995315988780e-04
1.995315661174e-04
1.995315014815e-04
1.995316012411e-04
1.995315420743e-04
1.994501766958e-04
1.995314799071e-04
1.994501706590e-04
1.994501393129e-04
1.994501774056e-04
1.995316033144e-04
1.995316053464e-04
1.994501644390e-04
1.994501611395e-04
1.994501694910e-04
1.995315516926e-04
1.995315619733e-04
1.994501576119e-04
1.994501758686e-04
1.994501643834e-04
1.994501717368e-04
1.995315295248e-04
1.994501591225e-04
1.995314564305e-04
1.994499886698e-04
SCALARS 4-Inrt double 1
LOOKUP_TABLE default
0.000000000000e+00
0.000000000000e+00
0.000000000000e+00
0.000000000000e+00
0.000000000000e+00
0.000000000000e+00
0.000000000000e+00
0.000000000000e+00
0.000000000000e+00
0.000000000000e+00
0.000000000000e+00
0.000000000000e+00
0.000000000000e+00
0.000000000000e+00
0.000000000000e+00
0.000000000000e+00
0.000000000000e+00
0.000000000000e+00
0.000000000000e+00
0.000000000000e+00
0.000000000000e+00
0.000000000000e+00
0.000000000000e+00
0.000000000000e+00
0.000000000000e+00
0.000000000000e+00
0.000000000000e+00
0.000000000000e+00
0.000000000000e+00
0.000000000000e+00
0.000000000000e+00
0.000000000000e+00
0.000000000000e+00
0.000000000000e+00
0.000000000000e+00
0.000000000000e+00
0.000000000000e+00
0.000000000000e+00
0.000000000000e+00
0.000000000000e+00
0.000000000000e+00
0.000000000000e+00
0.000000000000e+00
0.000000000000e+00
0.000000000000e+00
0.000000000000e+00
0.000000000000e+00
0.000000000000e+00
0.000000000000e+00
0.000000000000e+00
0.000000000000e+00
0.000000000000e+00
0.000000000000e+00
0.000000000000e+00
0.000000000000e+00
0.000000000000e+00
0.000000000000e+00
0.000000000000e+00
0.000000000000e+00
0.000000000000e+00
0.000000000000e+00
0.000000000000e+00
0.000000000000e+00
0.000000000000e+00
0.000000000000e+00
0.000000000000e+00
0.000000000000e+00
0.000000000000e+00
0.000000000000e+00
0.000000000000e+00
0.000000000000e+00
0.000000000000e+00
0.000000000000e+00
0.000000000000e+00
0.000000000000e+00
0.000000000000e+00
0.000000000000e+00
0.000000000000e+00
0.000000000000e+00
0.000000000000e+00
0.000000000000e+00
0.000000000000e+00
0.000000000000e+00
0.000000000000e+00
0.000000000000e+00
0.000000000000e+00
0.000000000000e+00
0.000000000000e+00
0.000000000000e+00
0.000000000000e+00
0.000000000000e+00
0.000000000000e+00
0.000000000000e+00
0.000000000000e+00
0.000000000000e+00
0.000000000000e+00
0.000000000000e+00
0.000000000000e+00
0.000000000000e+00
0.000000000000e+00
0.000000000000e+00
SCALARS 5-O double 1
LOOKUP_TABLE default
1.009972554693e-02
1.005738398046e-02
9.986754646638e-03
9.919786589010e-03
9.856306216641e-03
9.796454006792e-03
9.740075100421e-03
9.687168138446e-03
9.637682325552e-03
9.591517925041e-03
9.548690643640e-03
9.509087743808e-03
9.472631871731e-03
9.439281417877e-03
9.408868523803e-03
9.381343732838e-03
9.356614734805e-03
9.334545341885e-03
9.315120245568e-03
9.298241211288e-03
9.283686635907e-03
9.271479334451e-03
9.261519375055e-03
9.253585160424e-03
9.247699641239e-03
9.243723897937e-03
9.241560822589e-03
9.241155300214e-03
9.242290774740e-03
9.244996781566e-03
9.249141843730e-03
9.254637085482e-03
9.261395835968e-03
9.269333703082e-03
9.278368552123e-03
9.288461264417e-03
9.299412124445e-03
9.311268607919e-03
9.323917780961e-03
9.337289729152e-03
9.351357950614e-03
9.365976302197e-03
9.381123271961e-03
9.396739310924e-03
9.412726894321e-03
9.429153268676e-03
9.445803658734e-03
9.462750563194e-03
9.479946581561e-03
9.497265771128e-03
9.514706079986e-03
9.532227268853e-03
9.549790891516e-03
9.567320528579e-03
9.584863913625e-03
9.602388937996e-03
9.619743857956e-03
9.637022788169e-03
9.654199596409e-03
9.671168760259e-03
9.687908124673e-03
9.704519012960e-03
9.720860065300e-03
9.736913723564e-03
9.752745025932e-03
9.768298698028e-03
9.783561840136e-03
9.798563470393e-03
9.813211655618e-03
9.827537344464e-03
9.841491863841e-03
9.855190046798e-03
9.868503836380e-03
9.881468961058e-03
9.894040678309e-03
9.906337969276e-03
9.918236529052e-03
9.929775589369e-03
9.940954414910e-03
9.951773117278e-03
9.962232458255e-03
9.972293243675e-03
9.982079140382e-03
9.991430167084e-03
1.000047139601e-02
1.000916580380e-02
1.001755802417e-02
1.002557108707e-02
1.003320972322e-02
1.004056053054e-02
1.004758834646e-02
1.005433958775e-02
1.006073886182e-02
1.006679254860e-02
1.007258837463e-02
1.007809242401e-02
1.008331150729e-02
1.008829321365e-02
1.009292261804e-02
1.009736962068e-02
1.009972507400e-02
SCALARS 6-Zz double 1
LOOKUP_TABLE default
0.000000000000e+00
0.000000000000e+00
0.000000000000e+00
0.000000000000e+00
0.000000000000e+00
0.000000000000e+00
0.000000000000e+00
0.000000000000e+00
0.000000000000e+00
0.000000000000e+00
0.000000000000e+00
0.000000000000e+00
0.000000000000e+00
0.000000000000e+00
0.000000000000e+00
0.000000000000e+00
0.000000000000e+00
0.000000000000e+00
0.000000000000e+00
0.000000000000e+00
0.000000000000e+00
0.000000000000e+00
0.000000000000e+00
0.000000000000e+00
0.000000000000e+00
0.000000000000e+00
0.000000000000e+00
0.000000000000e+00
0.000000000000e+00
0.000000000000e+00
0.000000000000e+00
0.000000000000e+00
0.000000000000e+00
0.000000000000e+00
0.000000000000e+00
0.000000000000e+00
0.000000000000e+00
0.000000000000e+00
0.000000000000e+00
0.000000000000e+00
0.000000000000e+00
0.000000000000e+00
0.000000000000e+00
0.000000000000e+00
0.000000000000e+00
0.000000000000e+00
0.000000000000e+00
0.000000000000e+00
0.000000000000e+00
0.000000000000e+00
0.000000000000e+00
0.000000000000e+00
0.000000000000e+00
0.000000000000e+00
0.000000000000e+00
0.000000000000e+00
0.000000000000e+00
0.000000000000e+00
0.000000000000e+00
0.000000000000e+00
0.000000000000e+00
0.000000000000e+00
0.000000000000e+00
0.000000000000e+00
0.000000000000e+00
0.000000000000e+00
0.000000000000e+00
0.000000000000e+00
0.000000000000e+00
0.000000000000e+00
0.000000000000e+00
0.000000000000e+00
0.000000000000e+00
0.000000000000e+00
0.000000000000e+00
0.000000000000e+00
0.000000000000e+00
0.000000000000e+00
0.000000000000e+00
0.000000000000e+00
0.000000000000e+00
0.000000000000e+00
0.000000000000e+00
0.000000000000e+00
0.000000000000e+00
0.000000000000e+00
0.000000000000e+00
0.000000000000e+00
0.000000000000e+00
0.000000000000e+00
0.000000000000e+00
0.000000000000e+00
0.000000000000e+00
0.000000000000e+00
0.000000000000e+00
0.000000000000e+00
0.000000000000e+00
0.000000000000e+00
0.000000000000e+00
0.000000000000e+00
0.000000000000e+00
SCALARS Ael double 1
LOOKUP_TABLE default
 1.355660114523e-03
 1.119357269382e-03
 1.184526291988e-03
 1.253717322293e-03
 1.327180995021e-03
 1.405184464953e-03
 1.488011157798e-03
 1.575964122264e-03
 1.669361820634e-03
 1.768545990911e-03
 1.873879420878e-03
 1.985746136151e-03
 2.104556902111e-03
 2.230745490462e-03
 2.364775320093e-03
 2.507136683127e-03
 2.658355012926e-03
 2.818983581698e-03
 2.989614047821e-03
 3.170875137386e-03
 3.363431926056e-03
 3.567999285204e-03
 3.785324932106e-03
 4.016216695753e-03
 4.261524082603e-03
 4.522152127555e-03
 4.799069711645e-03
 5.093295456621e-03
 5.405925540247e-03
 5.738110605239e-03
 6.091084888638e-03
 6.466160395706e-03
 6.864716086133e-03
 7.288243571474e-03
 7.738309012532e-03
 8.216589586110e-03
 8.724857614441e-03
 9.265000839659e-03
 9.839031939246e-03
 1.044908359545e-02
 1.109742991058e-02
 1.178648167453e-02
 1.251880843458e-02
 1.329712989173e-02
 1.412435791899e-02
 1.500357130852e-02
 1.593804275735e-02
 1.693127185449e-02
 1.798695165742e-02
 1.910902499083e-02
 2.030168185666e-02
 2.156938697310e-02
 2.291686167966e-02
 2.434914240317e-02
 2.587158287373e-02
 2.748988540658e-02
 2.921008090789e-02
 3.103862298069e-02
 3.298233972796e-02
 3.504849445338e-02
 3.724482794715e-02
 3.957955875045e-02
 4.206143610670e-02
 4.469974964111e-02
 4.750438409459e-02
 5.048583012442e-02
 5.365524646571e-02
 5.702451294774e-02
 6.060628322111e-02
 6.441396869509e-02
 6.846181615089e-02
 7.276505349447e-02
 7.733975652273e-02
 8.220313986693e-02
 8.737337253839e-02
 9.286991459859e-02
 9.871333875581e-02
 1.049255910737e-01
 1.115299974164e-01
 1.185513181118e-01
 1.260158680062e-01
 1.339517608788e-01
 1.423887519826e-01
 1.513584636350e-01
 1.608946217671e-01
 1.710330320581e-01
 1.818117489437e-01
 1.932712909982e-01
 2.054546768184e-01
 2.184076662266e-01
 2.321789376839e-01
 2.468202449657e-01
 2.623865371996e-01
 2.789363986805e-01
 2.965319504383e-01
 3.152393472222e-01
 3.351289170523e-01
 3.562753975798e-01
 3.787582971000e-01
 4.026621254940e-01
 4.472320639878e-01
SCALARS Bel double 1
LOOKUP_TABLE default
 6.443399261168e-04
 1.000003556023e-03
 1.061610693989e-03
 1.127077612647e-03
 1.196649559561e-03
 1.270586596663e-03
 1.349165832014e-03
 1.432680175873e-03
 1.521444791686e-03
 1.615791617439e-03
 1.716074125946e-03
 1.822669831595e-03
 1.935977653813e-03
 2.056424697258e-03
 2.184462850640e-03
 2.320575005394e-03
 2.465270450507e-03
 2.619096069575e-03
 2.782629934755e-03
 2.956487028635e-03
 3.141324644570e-03
 3.337833919143e-03
 3.546762075767e-03
 3.768890787815e-03
 4.005060598177e-03
 4.256163432448e-03
 4.523141048416e-03
 4.807006337027e-03
 5.108823158148e-03
 5.429737567185e-03
 5.770957336153e-03
 6.133766978101e-03
 6.519548341404e-03
 6.929745312109e-03
 7.365912974748e-03
 7.829692903877e-03
 8.322841537376e-03
 8.847223196274e-03
 9.404814705233e-03
 9.997725354247e-03
 1.062819146560e-02
 1.129859812125e-02
 1.201147516303e-02
 1.276952501111e-02
 1.357560107672e-02
 1.443275473945e-02
 1.534423146151e-02
 1.631346236331e-02
 1.734412376472e-02
 1.844010865710e-02
 1.960555882330e-02
 2.084486869754e-02
 2.216273684745e-02
 2.356414300915e-02
 2.505438361983e-02
 2.663908067456e-02
 2.832424440046e-02
 3.011622453324e-02
 3.202180676890e-02
 3.404820337448e-02
 3.620306546124e-02
 3.849454073438e-02
 4.093128222824e-02
 4.352250421916e-02
 4.627799723756e-02
 4.920819142867e-02
 5.232417324669e-02
 5.563771628988e-02
 5.916131772979e-02
 6.290830917895e-02
 6.689287988261e-02
 7.113003815455e-02
 7.563585858545e-02
 8.042731229153e-02
 8.552258023126e-02
 9.094085356097e-02
 9.670265773519e-02
 1.028297467222e-01
 1.093452612923e-01
 1.162738495171e-01
 1.236417329666e-01
 1.314766603417e-01
 1.398082755178e-01
 1.486681158723e-01
 1.580896138293e-01
 1.681083738977e-01
 1.787622728601e-01
 1.900915306366e-01
 2.021389787674e-01
 2.149501428487e-01
 2.285734092492e-01
 2.430602343524e-01
 2.584654136058e-01
 2.748470554263e-01
 2.922671195497e-01
 3.107913878150e-01
 3.304898219993e-01
 3.514368563363e-01
 3.737115988672e-01
 3.973981984696e-01
 4.034308109272e-01
SCALARS H double 1
LOOKUP_TABLE default
 1.106904901085e+02
 1.833163644776e+01
 1.923780971250e+01
 2.019921216623e+01
 2.121906634598e+01
 2.230103074575e+01
 2.344881350489e+01
 2.466695469895e+01
 2.595903146704e+01
 2.732994100455e+01
 2.878473564905e+01
 3.032819993629e+01
 3.196635062794e+01
 3.370451203175e+01
 3.554921324426e+01
 3.750648372459e+01
 3.958441787023e+01
 4.178949702091e+01
 4.413002905184e+01
 4.661476657624e+01
 4.925158424331e+01
 5.205230414350e+01
 5.502404146598e+01
 5.818020577336e+01
 6.153080645941e+01
 6.508733062653e+01
 6.886528516198e+01
 7.287556957535e+01
 7.713642157811e+01
 8.165973653862e+01
 8.646380235633e+01
 9.156810182423e+01
 9.698463330256e+01
 1.027402754961e+02
 1.088526896727e+02
 1.153476019394e+02
 1.222460911483e+02
 1.295725470507e+02
 1.373564354169e+02
 1.456247058323e+02
 1.544102923414e+02
 1.637437483420e+02
 1.736618406122e+02
 1.841953970235e+02
 1.953912081923e+02
 2.072872630119e+02
 2.199232922970e+02
 2.333563438065e+02
 2.476266140377e+02
 2.627890247771e+02
 2.789005546550e+02
 2.960298938280e+02
 3.142295521345e+02
 3.335687413014e+02
 3.541203154322e+02
 3.759707604013e+02
 3.991842396763e+02
 4.238657117167e+02
 4.500968989653e+02
 4.779674521297e+02
 5.075899405702e+02
 5.390732174285e+02
 5.725441295180e+02
 6.081250907477e+02
 6.459542493791e+02
 6.861585578615e+02
 7.288773390431e+02
 7.742753363101e+02
 8.225536788123e+02
 8.738794559584e+02
 9.284146171593e+02
 9.864255029660e+02
 1.048058881832e+03
 1.113618414618e+03
 1.183261367910e+03
 1.257333050286e+03
 1.336050403747e+03
 1.419737409210e+03
 1.508729205154e+03
 1.603326484233e+03
 1.703830580718e+03
 1.810753884542e+03
 1.924447392945e+03
 2.045258501005e+03
 2.173710698894e+03
 2.310281160359e+03
 2.455451195108e+03
 2.609823375256e+03
 2.773937325373e+03
 2.948398053541e+03
 3.133889404879e+03
 3.331133046358e+03
 3.540756947941e+03
 3.763712007655e+03
 4.000704003561e+03
 4.252671754702e+03
 4.520593237550e+03
 4.805431825462e+03
 5.108293813436e+03
 5.430298796853e+03
 4.708014431404e+04
SCALARS Inrt double 1
LOOKUP_TABLE default
 9.989999999797e-01
 9.989403195872e-01
 9.988769315068e-01
 9.988096025321e-01
 9.987380847221e-01
 9.986621144684e-01
 9.985814115041e-01
 9.984956778498e-01
 9.984045966925e-01
 9.983078311943e-01
 9.982050232248e-01
 9.980957920141e-01
 9.979797327198e-01
 9.978564149036e-01
 9.977253809119e-01
 9.975861441527e-01
 9.974381872650e-01
 9.972809601707e-01
 9.971138780048e-01
 9.969363189128e-01
 9.967476217101e-01
 9.965470833929e-01
 9.963339564908e-01
 9.961074462526e-01
 9.958667076536e-01
 9.956108422137e-01
 9.953388946132e-01
 9.950498490960e-01
 9.947426256433e-01
 9.944160759058e-01
 9.940689788792e-01
 9.937000363042e-01
 9.933078677769e-01
 9.928910055484e-01
 9.924478889961e-01
 9.919768587443e-01
 9.914761504129e-01
 9.909438879703e-01
 9.903780766655e-01
 9.897765955124e-01
 9.891371892986e-01
 9.884574600883e-01
 9.877348581868e-01
 9.869666725337e-01
 9.861500204867e-01
 9.852818369600e-01
 9.843588628740e-01
 9.833776328739e-01
 9.823344622712e-01
 9.812254331577e-01
 9.800463796411e-01
 9.787928721452e-01
 9.774602007164e-01
 9.760433572733e-01
 9.745370167321e-01
 9.729355169377e-01
 9.712328373236e-01
 9.694225762203e-01
 9.674979267283e-01
 9.654516510623e-01
 9.632760532715e-01
 9.609629502328e-01
 9.585036408073e-01
 9.558888730442e-01
 9.531088093078e-01
 9.501529891970e-01
 9.470102901170e-01
 9.436688853540e-01
 9.401161994971e-01
 9.363388610353e-01
 9.323226519553e-01
 9.280524541474e-01
 9.235121924176e-01
 9.186847738924e-01
 9.135520235868e-01
 9.080946158918e-01
 9.022920017262e-01
 8.961223310738e-01
 8.895623706177e-01
 8.825874161578e-01
 8.751711994862e-01
 8.672857893628e-01
 8.589014862233e-01
 8.499867102205e-01
 8.405078821765e-01
 8.304292969976e-01
 8.197129890745e-01
 8.083185891600e-01
 7.962031721855e-01
 7.833210954419e-01
 7.696238265144e-01
 7.550597603232e-01
 7.395740245811e-01
 7.231082729321e-01
 7.056004649933e-01
 6.869846324706e-01
 6.671906304655e-01
 6.461438730355e-01
 6.237650520123e-01
 5.999698380167e-01
 5.746685625425e-01
SCALARS O double 1
LOOKUP_TABLE default
 5.534525505425e+01
 9.165819872976e+00
 9.618906574600e+00
 1.009960787511e+01
 1.060953504330e+01
 1.115051732649e+01
 1.172440879466e+01
 1.233347948599e+01
 1.297951797034e+01
 1.366497284584e+01
 1.439237028170e+01
 1.516410254622e+01
 1.598317802077e+01
 1.685225885969e+01
 1.777460961183e+01
 1.875324500728e+01
 1.979221224549e+01
 2.089475199692e+01
 2.206501819991e+01
 2.330738716185e+01
 2.462579620805e+01
 2.602615638478e+01
 2.751202528728e+01
 2.909010769805e+01
 3.076540831490e+01
 3.254367069005e+01
 3.443264826852e+01
 3.643779080612e+01
 3.856821716020e+01
 4.082987501606e+01
 4.323190832506e+01
 4.578405848547e+01
 4.849232467854e+01
 5.137014625906e+01
 5.442635386258e+01
 5.767381054500e+01
 6.112305573423e+01
 6.478628430826e+01
 6.867822915481e+01
 7.281236506912e+01
 7.720515907645e+01
 8.187188787845e+01
 8.683093486757e+01
 9.209771398243e+01
 9.769562053547e+01
 1.036436489769e+02
 1.099616647176e+02
 1.166781916423e+02
 1.238133280033e+02
 1.313945346990e+02