# vtk DataFile Version 3.0
Unstructured Grid from OpenGeoSys
ASCII
DATASET UNSTRUCTURED_GRID
FIELD TimesAndCycles 2
TIME 1 1 double
1.000000000000e+04
CYLCE 1 1 long
100
POINTS 101 double
0.000000000000e+00 0.000000000000e+00 0.000000000000e+00
2.000000000000e-05 0.000000000000e+00 0.000000000000e+00
4.000000000000e-05 0.000000000000e+00 0.000000000000e+00
6.000000000000e-05 0.000000000000e+00 0.000000000000e+00
8.000000000000e-05 0.000000000000e+00 0.000000000000e+00
1.000000000000e-04 0.000000000000e+00 0.000000000000e+00
1.200000000000e-04 0.000000000000e+00 0.000000000000e+00
1.400000000000e-04 0.000000000000e+00 0.000000000000e+00
1.600000000000e-04 0.000000000000e+00 0.000000000000e+00
1.800000000000e-04 0.000000000000e+00 0.000000000000e+00
2.000000000000e-04 0.000000000000e+00 0.000000000000e+00
2.200000000000e-04 0.000000000000e+00 0.000000000000e+00
2.400000000000e-04 0.000000000000e+00 0.000000000000e+00
2.600000000000e-04 0.000000000000e+00 0.000000000000e+00
2.800000000000e-04 0.000000000000e+00 0.000000000000e+00
3.000000000000e-04 0.000000000000e+00 0.000000000000e+00
3.200000000000e-04 0.000000000000e+00 0.000000000000e+00
3.400000000000e-04 0.000000000000e+00 0.000000000000e+00
3.600000000000e-04 0.000000000000e+00 0.000000000000e+00
3.800000000000e-04 0.000000000000e+00 0.000000000000e+00
4.000000000000e-04 0.000000000000e+00 0.000000000000e+00
4.200000000000e-04 0.000000000000e+00 0.000000000000e+00
4.400000000000e-04 0.000000000000e+00 0.000000000000e+00
4.600000000000e-04 0.000000000000e+00 0.000000000000e+00
4.800000000000e-04 0.000000000000e+00 0.000000000000e+00
5.000000000000e-04 0.000000000000e+00 0.000000000000e+00
5.200000000000e-04 0.000000000000e+00 0.000000000000e+00
5.400000000000e-04 0.000000000000e+00 0.000000000000e+00
5.600000000000e-04 0.000000000000e+00 0.000000000000e+00
5.800000000000e-04 0.000000000000e+00 0.000000000000e+00
6.000000000000e-04 0.000000000000e+00 0.000000000000e+00
6.200000000000e-04 0.000000000000e+00 0.000000000000e+00
6.400000000000e-04 0.000000000000e+00 0.000000000000e+00
6.600000000000e-04 0.000000000000e+00 0.000000000000e+00
6.800000000000e-04 0.000000000000e+00 0.000000000000e+00
7.000000000000e-04 0.000000000000e+00 0.000000000000e+00
7.200000000000e-04 0.000000000000e+00 0.000000000000e+00
7.400000000000e-04 0.000000000000e+00 0.000000000000e+00
7.600000000000e-04 0.000000000000e+00 0.000000000000e+00
7.800000000000e-04 0.000000000000e+00 0.000000000000e+00
8.000000000000e-04 0.000000000000e+00 0.000000000000e+00
8.200000000000e-04 0.000000000000e+00 0.000000000000e+00
8.400000000000e-04 0.000000000000e+00 0.000000000000e+00
8.600000000000e-04 0.000000000000e+00 0.000000000000e+00
8.800000000000e-04 0.000000000000e+00 0.000000000000e+00
9.000000000000e-04 0.000000000000e+00 0.000000000000e+00
9.200000000000e-04 0.000000000000e+00 0.000000000000e+00
9.400000000000e-04 0.000000000000e+00 0.000000000000e+00
9.600000000000e-04 0.000000000000e+00 0.000000000000e+00
9.800000000000e-04 0.000000000000e+00 0.000000000000e+00
1.000000000000e-03 0.000000000000e+00 0.000000000000e+00
1.020000000000e-03 0.000000000000e+00 0.000000000000e+00
1.040000000000e-03 0.000000000000e+00 0.000000000000e+00
1.060000000000e-03 0.000000000000e+00 0.000000000000e+00
1.080000000000e-03 0.000000000000e+00 0.000000000000e+00
1.100000000000e-03 0.000000000000e+00 0.000000000000e+00
1.120000000000e-03 0.000000000000e+00 0.000000000000e+00
1.140000000000e-03 0.000000000000e+00 0.000000000000e+00
1.160000000000e-03 0.000000000000e+00 0.000000000000e+00
1.180000000000e-03 0.000000000000e+00 0.000000000000e+00
1.200000000000e-03 0.000000000000e+00 0.000000000000e+00
1.220000000000e-03 0.000000000000e+00 0.000000000000e+00
1.240000000000e-03 0.000000000000e+00 0.000000000000e+00
1.260000000000e-03 0.000000000000e+00 0.000000000000e+00
1.280000000000e-03 0.000000000000e+00 0.000000000000e+00
1.300000000000e-03 0.000000000000e+00 0.000000000000e+00
1.320000000000e-03 0.000000000000e+00 0.000000000000e+00
1.340000000000e-03 0.000000000000e+00 0.000000000000e+00
1.360000000000e-03 0.000000000000e+00 0.000000000000e+00
1.380000000000e-03 0.000000000000e+00 0.000000000000e+00
1.400000000000e-03 0.000000000000e+00 0.000000000000e+00
1.420000000000e-03 0.000000000000e+00 0.000000000000e+00
1.440000000000e-03 0.000000000000e+00 0.000000000000e+00
1.460000000000e-03 0.000000000000e+00 0.000000000000e+00
1.480000000000e-03 0.000000000000e+00 0.000000000000e+00
1.500000000000e-03 0.000000000000e+00 0.000000000000e+00
1.520000000000e-03 0.000000000000e+00 0.000000000000e+00
1.540000000000e-03 0.000000000000e+00 0.000000000000e+00
1.560000000000e-03 0.000000000000e+00 0.000000000000e+00
1.580000000000e-03 0.000000000000e+00 0.000000000000e+00
1.600000000000e-03 0.000000000000e+00 0.000000000000e+00
1.620000000000e-03 0.000000000000e+00 0.000000000000e+00
1.640000000000e-03 0.000000000000e+00 0.000000000000e+00
1.660000000000e-03 0.000000000000e+00 0.000000000000e+00
1.680000000000e-03 0.000000000000e+00 0.000000000000e+00
1.700000000000e-03 0.000000000000e+00 0.000000000000e+00
1.720000000000e-03 0.000000000000e+00 0.000000000000e+00
1.740000000000e-03 0.000000000000e+00 0.000000000000e+00
1.760000000000e-03 0.000000000000e+00 0.000000000000e+00
1.780000000000e-03 0.000000000000e+00 0.000000000000e+00
1.800000000000e-03 0.000000000000e+00 0.000000000000e+00
1.820000000000e-03 0.000000000000e+00 0.000000000000e+00
1.840000000000e-03 0.000000000000e+00 0.000000000000e+00
1.860000000000e-03 0.000000000000e+00 0.000000000000e+00
1.880000000000e-03 0.000000000000e+00 0.000000000000e+00
1.900000000000e-03 0.000000000000e+00 0.000000000000e+00
1.920000000000e-03 0.000000000000e+00 0.000000000000e+00
1.940000000000e-03 0.000000000000e+00 0.000000000000e+00
1.960000000000e-03 0.000000000000e+00 0.000000000000e+00
1.980000000000e-03 0.000000000000e+00 0.000000000000e+00
2.000000000000e-03 0.000000000000e+00 0.000000000000e+00
CELLS 100 300
2 0 1
2 1 2
2 2 3
2 3 4
2 4 5
2 5 6
2 6 7
2 7 8
2 8 9
2 9 10
2 10 11
2 11 12
2 12 13
2 13 14
2 14 15
2 15 16
2 16 17
2 17 18
2 18 19
2 19 20
2 20 21
2 21 22
2 22 23
2 23 24
2 24 25
2 25 26
2 26 27
2 27 28
2 28 29
2 29 30
2 30 31
2 31 32
2 32 33
2 33 34
2 34 35
2 35 36
2 36 37
2 37 38
2 38 39
2 39 40
2 40 41
2 41 42
2 42 43
2 43 44
2 44 45
2 45 46
2 46 47
2 47 48
2 48 49
2 49 50
2 50 51
2 51 52
2 52 53
2 53 54
2 54 55
2 55 56
2 56 57
2 57 58
2 58 59
2 59 60
2 60 61
2 61 62
2 62 63
2 63 64
2 64 65
2 65 66
2 66 67
2 67 68
2 68 69
2 69 70
2 70 71
2 71 72
2 72 73
2 73 74
2 74 75
2 75 76
2 76 77
2 77 78
2 78 79
2 79 80
2 80 81
2 81 82
2 82 83
2 83 84
2 84 85
2 85 86
2 86 87
2 87 88
2 88 89
2 89 90
2 90 91
2 91 92
2 92 93
2 93 94
2 94 95
2 95 96
2 96 97
2 97 98
2 98 99
2 99 100

CELL_TYPES 100
3
3
3
3
3
3
3
3
3
3
3
3
3
3
3
3
3
3
3
3
3
3
3
3
3
3
3
3
3
3
3
3
3
3
3
3
3
3
3
3
3
3
3
3
3
3
3
3
3
3
3
3
3
3
3
3
3
3
3
3
3
3
3
3
3
3
3
3
3
3
3
3
3
3
3
3
3
3
3
3
3
3
3
3
3
3
3
3
3
3
3
3
3
3
3
3
3
3
3
3

POINT_DATA 101
SCALARS HEAD double 1
LOOKUP_TABLE default
1.000000000000e+01
1.000000000000e+01
1.000000000000e+01
1.000000000000e+01
1.000000000000e+01
1.000000000000e+01
1.000000000000e+01
1.000000000000e+01
1.000000000000e+01
1.000000000000e+01
1.000000000000e+01
1.000000000000e+01
1.000000000000e+01
1.000000000000e+01
1.000000000000e+01
1.000000000000e+01
1.000000000000e+01
1.000000000000e+01
1.000000000000e+01
1.000000000000e+01
1.000000000000e+01
1.000000000000e+01
1.000000000000e+01
1.000000000000e+01
1.000000000000e+01
1.000000000000e+01
1.000000000000e+01
1.000000000000e+01
1.000000000000e+01
1.000000000000e+01
1.000000000000e+01
1.000000000000e+01
1.000000000000e+01
1.000000000000e+01
1.000000000000e+01
1.000000000000e+01
1.000000000000e+01
1.000000000000e+01
1.000000000000e+01
1.000000000000e+01
1.000000000000e+01
1.000000000000e+01
1.000000000000e+01
1.000000000000e+01
1.000000000000e+01
1.000000000000e+01
1.000000000000e+01
1.000000000000e+01
1.000000000000e+01
1.000000000000e+01
1.000000000000e+01
1.000000000000e+01
1.000000000000e+01
1.000000000000e+01
1.000000000000e+01
1.000000000000e+01
1.000000000000e+01
1.000000000000e+01
1.000000000000e+01
1.000000000000e+01
1.000000000000e+01
1.000000000000e+01
1.000000000000e+01
1.000000000000e+01
1.000000000000e+01
1.000000000000e+01
1.000000000000e+01
1.000000000000e+01
1.000000000000e+01
1.000000000000e+01
1.000000000000e+01
1.000000000000e+01
1.000000000000e+01
1.000000000000e+01
1.000000000000e+01
1.000000000000e+01
1.000000000000e+01
1.000000000000e+01
1.000000000000e+01
1.000000000000e+01
1.000000000000e+01
1.000000000000e+01
1.000000000000e+01
1.000000000000e+01
1.000000000000e+01
1.000000000000e+01
1.000000000000e+01
1.000000000000e+01
1.000000000000e+01
1.000000000000e+01
1.000000000000e+01
1.000000000000e+01
1.000000000000e+01
1.000000000000e+01
1.000000000000e+01
1.000000000000e+01
1.000000000000e+01
1.000000000000e+01
1.000000000000e+01
1.000000000000e+01
1.000000000000e+01
SCALARS 1-Ael double 1
LOOKUP_TABLE default
1.448038379038e+00
1.453345913493e+00
1.446094326575e+00
1.438893303380e+00
1.431746252051e+00
1.424656380638e+00
1.417626708668e+00
1.410660121163e+00
1.403759282395e+00
1.396926609234e+00
1.390164404292e+00
1.383474764469e+00
1.376859617151e+00
1.370320717933e+00
1.363859626656e+00
1.357477721709e+00
1.351176260846e+00
1.344956359842e+00
1.338818932638e+00
1.332764802131e+00
1.326794606438e+00
1.320908916877e+00
1.315108147676e+00
1.309392558862e+00
1.303762370091e+00
1.298217591450e+00
1.292758215063e+00
1.287384134524e+00
1.282095165100e+00
1.276891044322e+00
1.271771358461e+00
1.266735732879e+00
1.261783598150e+00
1.256914325838e+00
1.252127336828e+00
1.247421977021e+00
1.242797553798e+00
1.238253252711e+00
1.233788250732e+00
1.229401707040e+00
1.225092753898e+00
1.220860502817e+00
1.216704037178e+00
1.212622379110e+00
1.208614548928e+00
1.204679599697e+00
1.200816490399e+00
1.197024217993e+00
1.193301779653e+00
1.189648100256e+00
1.186062126919e+00
1.182542861203e+00
1.179089285409e+00
1.175700320809e+00
1.172374909320e+00
1.169112044162e+00
1.165910690516e+00
1.162769813752e+00
1.159688419066e+00
1.156665449946e+00
1.153699863975e+00
1.150790654862e+00
1.147936843533e+00
1.145137473804e+00
1.142391596469e+00
1.139698249446e+00
1.137056432907e+00
1.134465157711e+00
1.131923512958e+00
1.129430625046e+00
1.126985564582e+00
1.124587453062e+00
1.122235420596e+00
1.119928600616e+00
1.117666133305e+00
1.115447160113e+00
1.113270866668e+00
1.111136420043e+00
1.109043040751e+00
1.106989951494e+00
1.104976334145e+00
1.103001433614e+00
1.101064555680e+00
1.099164945134e+00
1.097301856273e+00
1.095474589885e+00
1.093682444049e+00
1.091924737811e+00
1.090200809248e+00
1.088509990815e+00
1.086851633161e+00
1.085225112872e+00
1.083629797290e+00
1.082065074962e+00
1.080530355710e+00
1.079025041420e+00
1.077548561057e+00
1.076100352029e+00
1.074679860047e+00
1.073286544000e+00
1.070357389076e+00
SCALARS 2-Bel double 1
LOOKUP_TABLE default
5.519616209621e-01
5.466540859853e-01
5.539056719726e-01
5.611066942735e-01
5.682537447481e-01
5.753436153439e-01
5.823732865449e-01
5.893398733133e-01
5.962407113894e-01
6.030733838985e-01
6.098355882309e-01
6.165252274842e-01
6.231403742706e-01
6.296792729968e-01
6.361403638223e-01
6.425222683539e-01
6.488237288416e-01
6.550436295003e-01
6.611810563998e-01
6.672351866348e-01
6.732053820905e-01
6.790910714467e-01
6.848918404714e-01
6.906074291419e-01
6.962376177969e-01
7.017823963483e-01
7.072417726762e-01
7.126158531773e-01
7.179048225912e-01
7.231089433803e-01
7.282286292734e-01
7.332642549091e-01
7.382163897108e-01
7.430856621147e-01
7.478726512326e-01
7.525780111647e-01
7.572024345280e-01
7.617467357677e-01
7.662117379137e-01
7.705982817834e-01
7.749072351149e-01
7.791394863953e-01
7.832959522420e-01
7.873776105262e-01
7.913854409322e-01
7.953203903922e-01
7.991834999262e-01
8.029757725716e-01
8.066982111559e-01
8.103518908012e-01
8.139378643880e-01
8.174571303559e-01
8.209107064039e-01
8.242996712585e-01
8.276250830024e-01
8.308879484158e-01
8.340893023159e-01
8.372301793325e-01
8.403115742705e-01
8.433345436402e-01
8.463001298582e-01
8.492093392154e-01
8.520631507857e-01
8.548625207538e-01
8.576083983236e-01
8.603017455774e-01
8.629435623432e-01
8.655348377623e-01
8.680764827339e-01
8.705693708596e-01
8.730144315329e-01
8.754125432570e-01
8.777645759219e-01
8.800713960964e-01
8.823338635968e-01
8.845528369720e-01
8.867291305955e-01
8.888635773945e-01
8.909569568544e-01
8.930100462739e-01
8.950236637809e-01
8.969985644640e-01
8.989354425448e-01
9.008350532319e-01
9.026981422293e-01
9.045254087488e-01
9.063175547105e-01
9.080752610699e-01
9.097991897480e-01
9.114900082923e-01
9.131483660521e-01
9.147748864433e-01
9.163702021217e-01
9.179349245419e-01
9.194696438819e-01
9.209749582547e-01
9.224514386969e-01
9.238996477993e-01
9.253201398523e-01
9.267134559662e-01
9.296426109238e-01
SCALARS 3-H double 1
LOOKUP_TABLE default
1.994509163545e-04
1.995314555142e-04
1.995314677654e-04
1.994500640615e-04
1.994500689593e-04
1.994500822542e-04
1.994500877696e-04
1.995315821325e-04
1.994500836913e-04
1.994500703350e-04
1.995316574711e-04
1.995316479012e-04
1.995316137901e-04
1.995316706185e-04
1.994501213602e-04
1.995316192786e-04
1.995315608552e-04
1.994501193587e-04
1.995316871722e-04
1.995317070522e-04
1.995317272114e-04
1.995315728240e-04
1.995316887892e-04
1.995316215737e-04
1.994501250457e-04
1.994501226139e-04
1.995317042038e-04
1.994501191157e-04
1.995315668257e-04
1.995316427783e-04
1.994501392241e-04
1.995315558202e-04
1.994501498279e-04
1.995316913704e-04
1.995315314266e-04
1.994501500737e-04
1.995316373796e-04
1.995315497133e-04
1.995316433990e-04
1.994501469627e-04
1.995314970562e-04
1.995315139665e-04
1.995316445729e-04
1.994501456175e-04
1.995316356257e-04
1.994501527624e-04
1.995316656929e-04
1.995315368496e-04
1.995316630996e-04
1.994501541838e-04
1.994501653225e-04
1.994501550509e-04
1.994501645950e-04
1.995316507143e-04
1.994501637767e-04
1.994501460297e-04
1.994501559385e-04
1.995314488474e-04
1.994501521279e-04
1.995316423952e-04
1.995315642187e-04
1.995315057490e-04
1.995315850998e-04
1.994501490881e-04
1.994501540128e-04
1.995315805573e-04
1.995316162202e-04
1.995316236282e-04
1.994501750996e-04
1.995315639594e-04
1.994501571172e-04
1.994501669879e-04
1.995315668855e-04
1.994501522117e-04
1.994501759567e-04
1.994501827101e-04
1.994501686475e-04
1.995316335795e-04
1.995315891538e-04
1.995315705958e-04
1.994501591865e-04
1.994501534967e-04
1.994501635921e-04
1.995315960902e-04
1.994501663231e-04
1.995316076081e-04
1.995315597916e-04
1.995315978777e-04
1.995314523600e-04
1.994501385916e-04
1.995315516158e-04
1.995315145277e-04
1.994501514289e-04
1.994501560785e-04
1.994501632019e-04
1.995316174295e-04
1.994501639345e-04
1.994501709686e-04
1.994501750473e-04
1.994501554549e-04
1.994499886698e-04
SCALARS 4-Inrt double 1
LOOKUP_TABLE default
0.000000000000e+00
0.000000000000e+00
0.000000000000e+00
0.000000000000e+00
0.000000000000e+00
0.000000000000e+00
0.000000000000e+00
0.000000000000e+00
0.000000000000e+00
0.000000000000e+00
0.000000000000e+00
0.000000000000e+00
0.000000000000e+00
0.000000000000e+00
0.000000000000e+00
0.000000000000e+00
0.000000000000e+00
0.000000000000e+00
0.000000000000e+00
0.000000000000e+00
0.000000000000e+00
0.000000000000e+00
0.000000000000e+00
0.000000000000e+00
0.000000000000e+00
0.000000000000e+00
0.000000000000e+00
0.000000000000e+00
0.000000000000e+00
0.000000000000e+00
0.000000000000e+00
0.000000000000e+00
0.000000000000e+00
0.000000000000e+00
0.000000000000e+00
0.000000000000e+00
0.000000000000e+00
0.000000000000e+00
0.000000000000e+00
0.000000000000e+00
0.000000000000e+00
0.000000000000e+00
0.000000000000e+00
0.000000000000e+00
0.000000000000e+00
0.000000000000e+00
0.000000000000e+00
0.000000000000e+00
0.000000000000e+00
0.000000000000e+00
0.000000000000e+00
0.000000000000e+00
0.000000000000e+00
0.000000000000e+00
0.000000000000e+00
0.000000000000e+00
0.000000000000e+00
0.000000000000e+00
0.000000000000e+00
0.000000000000e+00
0.000000000000e+00
0.000000000000e+00
0.000000000000e+00
0.000000000000e+00
0.000000000000e+00
0.000000000000e+00
0.000000000000e+00
0.000000000000e+00
0.000000000000e+00
0.000000000000e+00
0.000000000000e+00
0.000000000000e+00
0.000000000000e+00
0.000000000000e+00
0.000000000000e+00
0.000000000000e+00
0.000000000000e+00
0.000000000000e+00
0.000000000000e+00
0.000000000000e+00
0.000000000000e+00
0.000000000000e+00
0.000000000000e+00
0.000000000000e+00
0.000000000000e+00
0.000000000000e+00
0.000000000000e+00
0.000000000000e+00
0.000000000000e+00
0.000000000000e+00
0.000000000000e+00
0.000000000000e+00
0.000000000000e+00
0.000000000000e+00
0.000000000000e+00
0.000000000000e+00
0.000000000000e+00
0.000000000000e+00
0.000000000000e+00
0.000000000000e+00
0.000000000000e+00
SCALARS 5-O double 1
LOOKUP_TABLE default
1.009972554693e-02
1.009068458524e-02
1.007436309957e-02
1.005870236939e-02
1.004379771609e-02
1.002961863310e-02
1.001617212691e-02
1.000350289282e-02
9.991489607630e-03
9.980252573645e-03
9.969787464057e-03
9.960005961142e-03
9.950939887007e-03
9.942578390324e-03
9.934867816585e-03
9.927916062511e-03
9.921585084904e-03
9.915857790738e-03
9.910838231534e-03
9.906384865317e-03
9.902518522254e-03
9.899218434572e-03
9.896463627390e-03
9.894232105820e-03
9.892461388303e-03
9.891210763689e-03
9.890457978587e-03
9.890058373095e-03
9.890152858000e-03
9.890597175584e-03
9.891369368492e-03
9.892570083375e-03
9.894015249808e-03
9.895846926095e-03
9.897922343614e-03
9.900221736476e-03
9.902847763663e-03
9.905659181409e-03
9.908678622275e-03
9.911847291797e-03
9.915270263204e-03
9.918808797512e-03
9.922487596391e-03
9.926250432910e-03
9.930204814396e-03
9.934173640170e-03
9.938306385061e-03
9.942467821013e-03
9.946686572234e-03
9.950910056315e-03
9.955208741076e-03
9.959531351471e-03
9.963867917526e-03
9.968249787494e-03
9.972546039768e-03
9.976870519173e-03
9.981174735912e-03
9.985492128199e-03
9.989693843663e-03
9.993936447564e-03
9.998091988095e-03
1.000219579822e-02
1.000624310299e-02
1.001018846640e-02
1.001410912601e-02
1.001800140644e-02
1.002178058845e-02
1.002548436874e-02
1.002906930645e-02
1.003265517719e-02
1.003607708778e-02
1.003945533712e-02
1.004278843783e-02
1.004595308633e-02
1.004907033450e-02
1.005209882345e-02
1.005503797981e-02
1.005792823359e-02
1.006068796134e-02
1.006335800270e-02
1.006589787777e-02
1.006838947171e-02
1.007079246987e-02
1.007314836928e-02
1.007533579143e-02
1.007751865001e-02
1.007957575653e-02
1.008154902748e-02
1.008343957282e-02
1.008520833714e-02
1.008697856600e-02
1.008862970453e-02
1.009016331370e-02
1.009166238967e-02
1.009308788509e-02
1.009448218900e-02
1.009572490101e-02
1.009693992970e-02
1.009808834577e-02
1.009917188672e-02
1.009972507400e-02
SCALARS 6-Zz double 1
LOOKUP_TABLE default
0.000000000000e+00
0.000000000000e+00
0.000000000000e+00
0.000000000000e+00
0.000000000000e+00
0.000000000000e+00
0.000000000000e+00
0.000000000000e+00
0.000000000000e+00
0.000000000000e+00
0.000000000000e+00
0.000000000000e+00
0.000000000000e+00
0.000000000000e+00
0.000000000000e+00
0.000000000000e+00
0.000000000000e+00
0.000000000000e+00
0.000000000000e+00
0.000000000000e+00
0.000000000000e+00
0.000000000000e+00
0.000000000000e+00
0.000000000000e+00
0.000000000000e+00
0.000000000000e+00
0.000000000000e+00
0.000000000000e+00
0.000000000000e+00
0.000000000000e+00
0.000000000000e+00
0.000000000000e+00
0.000000000000e+00
0.000000000000e+00
0.000000000000e+00
0.000000000000e+00
0.000000000000e+00
0.000000000000e+00
0.000000000000e+00
0.000000000000e+00
0.000000000000e+00
0.000000000000e+00
0.000000000000e+00
0.000000000000e+00
0.000000000000e+00
0.000000000000e+00
0.000000000000e+00
0.000000000000e+00
0.000000000000e+00
0.000000000000e+00
0.000000000000e+00
0.000000000000e+00
0.000000000000e+00
0.000000000000e+00
0.000000000000e+00
0.000000000000e+00
0.000000000000e+00
0.000000000000e+00
0.000000000000e+00
0.000000000000e+00
0.000000000000e+00
0.000000000000e+00
0.000000000000e+00
0.000000000000e+00
0.000000000000e+00
0.000000000000e+00
0.000000000000e+00
0.000000000000e+00
0.000000000000e+00
0.000000000000e+00
0.000000000000e+00
0.000000000000e+00
0.000000000000e+00
0.000000000000e+00
0.000000000000e+00
0.000000000000e+00
0.000000000000e+00
0.000000000000e+00
0.000000000000e+00
0.000000000000e+00
0.000000000000e+00
0.000000000000e+00
0.000000000000e+00
0.000000000000e+00
0.000000000000e+00
0.000000000000e+00
0.000000000000e+00
0.000000000000e+00
0.000000000000e+00
0.000000000000e+00
0.000000000000e+00
0.000000000000e+00
0.000000000000e+00
0.000000000000e+00
0.000000000000e+00
0.000000000000e+00
0.000000000000e+00
0.000000000000e+00
0.000000000000e+00
0.000000000000e+00
0.000000000000e+00
SCALARS Ael double 1
LOOKUP_TABLE default
 1.448038408463e-03
 1.098431200220e-03
 1.162755143562e-03
 1.231067110632e-03
 1.303616408206e-03
 1.380668550878e-03
 1.462505455802e-03
 1.549427952989e-03
 1.641753536575e-03
 1.739821768445e-03
 1.843993335108e-03
 1.954650680775e-03
 2.072201968052e-03
 2.197079343401e-03
 2.329743659115e-03
 2.470683430166e-03
 2.620420599522e-03
 2.779506843939e-03
 2.948530806501e-03
 3.128118151290e-03
 3.318932069590e-03
 3.521682348704e-03
 3.737116271535e-03
 3.966036060307e-03
 4.209289071256e-03
 4.467777347697e-03
 4.742463904837e-03
 5.034365861800e-03
 5.344572425709e-03
 5.674232965625e-03
 6.024575923348e-03
 6.396907272192e-03
 6.792606256275e-03
 7.213154214232e-03
 7.660114668377e-03
 8.135157009879e-03
 8.640049903388e-03
 9.176675845473e-03
 9.747039630948e-03
 1.035326868103e-02
 1.099762877668e-02
 1.168252493721e-02
 1.241051795094e-02
 1.318432353321e-02
 1.400684076758e-02
 1.488114227818e-02
 1.581049463258e-02
 1.679838242846e-02
 1.784849483235e-02
 1.896476365805e-02
 2.015136823093e-02
 2.141275781442e-02
 2.275364854507e-02
 2.417906431319e-02
 2.569434617006e-02
 2.730517874500e-02
 2.901758818951e-02
 3.083800528233e-02
 3.277324864311e-02
 3.483057021788e-02
 3.701769101830e-02
 3.934281389965e-02
 4.181466687525e-02
 4.444252288074e-02
 4.723624584039e-02
 5.020631295432e-02
 5.336386692969e-02
 5.672076413489e-02
 6.028962374047e-02
 6.408383945916e-02
 6.811764526087e-02
 7.240622069319e-02
 7.696564109710e-02
 8.181306746362e-02
 8.696667125204e-02
 9.244585327716e-02
 9.827117569755e-02
 1.044645421890e-01
 1.110492377547e-01
 1.180499978836e-01
 1.254931167692e-01
 1.334066276946e-01
 1.418202612647e-01
 1.507656209861e-01
 1.602763680306e-01
 1.703882636573e-01
 1.811393230691e-01
 1.925699989292e-01
 2.047232685313e-01
 2.176448399961e-01
 2.313833273200e-01
 2.459904186433e-01
 2.615210291794e-01
 2.780336382017e-01
 2.955903311602e-01
 3.142571805171e-01
 3.341044334807e-01
 3.552067607708e-01
 3.776435823747e-01
 4.014993285429e-01
 4.552566468889e-01
SCALARS Bel double 1
LOOKUP_TABLE default
 5.519616321781e-04
 1.020929625315e-03
 1.083381842774e-03
 1.149727824908e-03
 1.220214147228e-03
 1.295102511855e-03
 1.374671535405e-03
 1.459216346833e-03
 1.549053077733e-03
 1.644515842211e-03
 1.745960214354e-03
 1.853765289955e-03
 1.968332591217e-03
 2.090090848039e-03
 2.219494515729e-03
 2.357028262873e-03
 2.503204868850e-03
 2.658572812712e-03
 2.823713181907e-03
 2.999244021034e-03
 3.185824507827e-03
 3.384150862937e-03
 3.594970744153e-03
 3.819071431614e-03
 4.057295618431e-03
 4.310538221785e-03
 4.579746865294e-03
 4.865935942523e-03
 5.170176283984e-03
 5.493615218737e-03
 5.837466314038e-03
 6.203020114884e-03
 6.591658185220e-03
 7.004834684015e-03
 7.444107334288e-03
 7.911125496230e-03
 8.407649265304e-03
 8.935548208099e-03
 9.496807031948e-03
 1.009354028787e-02
 1.072799261952e-02
 1.140255487941e-02
 1.211976566833e-02
 1.288233139212e-02
 1.369311825147e-02
 1.455518379399e-02
 1.547177961133e-02
 1.644635181525e-02
 1.748258061657e-02
 1.858437001752e-02
 1.975587247756e-02
 2.100149788561e-02
 2.232595001228e-02
 2.373422113023e-02
 2.523162035546e-02
 2.682378736894e-02
 2.851673715248e-02
 3.031684226605e-02
 3.223089788901e-02
 3.426612764603e-02
 3.643020242689e-02
 3.873128562272e-02
 4.117805149792e-02
 4.377973101844e-02
 4.654613553130e-02
 4.948770863892e-02
 5.261555282341e-02
 5.594146514395e-02
 5.947797725211e-02
 6.323843845696e-02
 6.723705081507e-02
 7.148887099855e-02
 7.600997405401e-02
 8.081738473792e-02
 8.592928156076e-02
 9.136491492554e-02
 9.714482083648e-02
 1.032907956498e-01
 1.098260209966e-01
 1.167751697875e-01
 1.241644842452e-01
 1.320217935669e-01
 1.403767662760e-01
 1.492609585605e-01
 1.587078676043e-01
 1.687531423357e-01
 1.794346987707e-01
 1.907928227400e-01
 2.028703870874e-01
 2.157129691103e-01
 2.293690196422e-01
 2.438900607017e-01
 2.593309216507e-01
 2.757498159272e-01
 2.932087388472e-01
 3.117735545366e-01
 3.315143055842e-01
 3.525054931551e-01
 3.748263135987e-01
 3.985609954231e-01
 3.954062280259e-01
SCALARS H double 1
LOOKUP_TABLE default
 1.106904901085e+02
 9.461524717700e+00
 9.847546643102e+00
 1.025703186979e+01
 1.069127628326e+01
 1.115177706114e+01
 1.164003553191e+01
 1.215794537741e+01
 1.270690161113e+01
 1.328892943094e+01
 1.390610440207e+01
 1.456034929671e+01
 1.525415747334e+01
 1.598966525076e+01
 1.676955952853e+01
 1.759626545872e+01
 1.847315394604e+01
 1.940281192693e+01
 2.038865341504e+01
 2.143426837888e+01
 2.254281503542e+01
 2.371923344075e+01
 2.496628164301e+01
 2.628955628980e+01
 2.769307659360e+01
 2.918150329845e+01
 3.076126858905e+01
 3.243670640771e+01
 3.421539259983e+01
 3.610204545947e+01
 3.810418738274e+01
 4.022982481001e+01
 4.248363864397e+01
 4.487680841879e+01
 4.741643052227e+01
 5.011308478642e+01
 5.297528551005e+01
 5.601295039467e+01
 5.923815200934e+01
 6.266183086085e+01
 6.629746320083e+01
 7.015745508312e+01
 7.425683371882e+01
 7.860803938016e+01
 8.323028711405e+01
 8.813898138320e+01
 9.335022752082e+01
 9.888743595748e+01
 1.047668114189e+02
 1.110107527956e+02
 1.176424715918e+02
 1.246900615597e+02
 1.321747366382e+02
 1.401246955705e+02
 1.485696071527e+02
 1.575447965923e+02
 1.670761671942e+02
 1.772066517484e+02
 1.879693867631e+02
 1.994007692510e+02
 2.115466985787e+02
 2.244514494176e+02
 2.381667195274e+02
 2.527422842234e+02
 2.682343880752e+02
 2.846945514587e+02
 3.021793665682e+02
 3.207558954666e+02
 3.405061856736e+02
 3.614980919394e+02
 3.837972754485e+02
 4.075124795240e+02
 4.327029321765e+02
 4.594925842303e+02
 4.879448588099e+02
 5.182006726952e+02
 5.503479019809e+02
 5.845184484658e+02
 6.208486913605e+02
 6.594607275330e+02
 7.004768364332e+02
 7.441059724007e+02
 7.904906033672e+02
 8.397716371486e+02
 8.921621990441e+02
 9.478562609254e+02
 1.007049377972e+03
 1.069986724680e+03
 1.136887526749e+03
 1.207997695161e+03
 1.283595313462e+03
 1.363973813041e+03
 1.449388123914e+03
 1.540225248910e+03
 1.636771699607e+03
 1.739409217389e+03
 1.848535396037e+03
 1.964541700012e+03
 2.087877875313e+03
 2.218998936908e+03
 4.708014431404e+04
SCALARS Inrt double 1
LOOKUP_TABLE default
 9.989999999797e-01
 9.989403195872e-01
 9.988769315068e-01
 9.988096025321e-01
 9.987380847221e-01
 9.986621144684e-01
 9.985814115041e-01
 9.984956778498e-01
 9.984045966925e-01
 9.983078311943e-01
 9.982050232248e-01
 9.980957920141e-01
 9.979797327198e-01
 9.978564149036e-01
 9.977253809119e-01
 9.975861441527e-01
 9.974381872650e-01
 9.972809601707e-01
 9.971138780048e-01
 9.969363189128e-01
 9.967476217101e-01
 9.965470833929e-01
 9.963339564908e-01
 9.961074462526e-01
 9.958667076536e-01
 9.956108422137e-01
 9.953388946132e-01
 9.950498490960e-01
 9.947426256433e-01
 9.944160759058e-01
 9.940689788792e-01
 9.937000363042e-01
 9.933078677769e-01
 9.928910055484e-01
 9.924478889961e-01
 9.919768587443e-01
 9.914761504129e-01
 9.909438879703e-01
 9.903780766655e-01
 9.897765955124e-01
 9.891371892986e-01
 9.884574600883e-01
 9.877348581868e-01
 9.869666725337e-01
 9.861500204867e-01
 9.852818369600e-01
 9.843588628740e-01
 9.833776328739e-01
 9.823344622712e-01
 9.812254331577e-01
 9.800463796411e-01
 9.787928721452e-01
 9.774602007164e-01
 9.760433572733e-01
 9.745370167321e-01
 9.729355169377e-01
 9.712328373236e-01
 9.694225762203e-01
 9.674979267283e-01
 9.654516510623e-01
 9.632760532715e-01
 9.609629502328e-01
 9.585036408073e-01
 9.558888730442e-01
 9.531088093078e-01
 9.501529891970e-01
 9.470102901170e-01
 9.436688853540e-01
 9.401161994971e-01
 9.363388610353e-01
 9.323226519553e-01
 9.280524541474e-01
 9.235121924176e-01
 9.186847738924e-01
 9.135520235868e-01
 9.080946158918e-01
 9.022920017262e-01
 8.961223310738e-01
 8.895623706177e-01
 8.825874161578e-01
 8.751711994862e-01
 8.672857893628e-01
 8.589014862233e-01
 8.499867102205e-01
 8.405078821765e-01
 8.304292969976e-01
 8.197129890745e-01
 8.083185891600e-01
 7.962031721855e-01
 7.833210954419e-01
 7.696238265144e-01
 7.550597603232e-01
 7.395740245811e-01
 7.231082729321e-01
 7.056004649933e-01
 6.869846324706e-01
 6.671906304655e-01
 6.461438730355e-01
 6.237650520123e-01
 5.999698380167e-01
 5.746685625425e-01
SCALARS O double 1
LOOKUP_TABLE default
 5.534525505425e+01
 4.730763212847e+00
 4.923774208938e+00
 5.128516857733e+00
 5.345639102098e+00
 5.575889530979e+00
 5.820018808751e+00
 6.078973776507e+00
 6.353451941106e+00
 6.644465901674e+00
 6.953053441012e+00
 7.280175945381e+00
 7.627080094252e+00
 7.994834047211e+00
 8.384781254283e+00
 8.798134291725e+00
 9.236578612184e+00
 9.701407684125e+00
 1.019432851467e+01
 1.071713608841e+01
 1.127140951410e+01
 1.185961882025e+01
 1.248314303115e+01
 1.314478047113e+01
 1.384654074679e+01
 1.459075423057e+01
 1.538063701539e+01
 1.621835607281e+01
 1.710769932621e+01
 1.805102592304e+01
 1.905209706205e+01
 2.011491596414e+01
 2.124182308109e+01
 2.243840818098e+01
 2.370821945837e+01
 2.505654683020e+01
 2.648764744668e+01
 2.800648015943e+01
 2.961908125410e+01
 3.133092098506e+01
 3.314873747936e+01
 3.507873376503e+01
 3.712842344900e+01
 3.930402666849e+01
 4.161515094872e+01
 4.406949852243e+01
 4.667512205769e+01
 4.944372677190e+01
 5.238341502943e+01
 5.550538627750e+01