# vtk DataFile Version 3.0
Unstructured Grid from OpenGeoSys
ASCII
DATASET UNSTRUCTURED_GRID
FIELD TimesAndCycles 2
TIME 1 1 double
0.000000000000e+00
CYLCE 1 1 long
0
POINTS 101 double
0.000000000000e+00 0.000000000000e+00 0.000000000000e+00
2.000000000000e-05 0.000000000000e+00 0.000000000000e+00
4.000000000000e-05 0.000000000000e+00 0.000000000000e+00
6.000000000000e-05 0.000000000000e+00 0.000000000000e+00
8.000000000000e-05 0.000000000000e+00 0.000000000000e+00
1.000000000000e-04 0.000000000000e+00 0.000000000000e+00
1.200000000000e-04 0.000000000000e+00 0.000000000000e+00
1.400000000000e-04 0.000000000000e+00 0.000000000000e+00
1.600000000000e-04 0.000000000000e+00 0.000000000000e+00
1.800000000000e-04 0.000000000000e+00 0.000000000000e+00
2.000000000000e-04 0.000000000000e+00 0.000000000000e+00
2.200000000000e-04 0.000000000000e+00 0.000000000000e+00
2.400000000000e-04 0.000000000000e+00 0.000000000000e+00
2.600000000000e-04 0.000000000000e+00 0.000000000000e+00
2.800000000000e-04 0.000000000000e+00 0.000000000000e+00
3.000000000000e-04 0.000000000000e+00 0.000000000000e+00
3.200000000000e-04 0.000000000000e+00 0.000000000000e+00
3.400000000000e-04 0.000000000000e+00 0.000000000000e+00
3.600000000000e-04 0.000000000000e+00 0.000000000000e+00
3.800000000000e-04 0.000000000000e+00 0.000000000000e+00
4.000000000000e-04 0.000000000000e+00 0.000000000000e+00
4.200000000000e-04 0.000000000000e+00 0.000000000000e+00
4.400000000000e-04 0.000000000000e+00 0.000000000000e+00
4.600000000000e-04 0.000000000000e+00 0.000000000000e+00
4.800000000000e-04 0.000000000000e+00 0.000000000000e+00
5.000000000000e-04 0.000000000000e+00 0.000000000000e+00
5.200000000000e-04 0.000000000000e+00 0.000000000000e+00
5.400000000000e-04 0.000000000000e+00 0.000000000000e+00
5.600000000000e-04 0.000000000000e+00 0.000000000000e+00
5.800000000000e-04 0.000000000000e+00 0.000000000000e+00
6.000000000000e-04 0.000000000000e+00 0.000000000000e+00
6.200000000000e-04 0.000000000000e+00 0.000000000000e+00
6.400000000000e-04 0.000000000000e+00 0.000000000000e+00
6.600000000000e-04 0.000000000000e+00 0.000000000000e+00
6.800000000000e-04 0.000000000000e+00 0.000000000000e+00
7.000000000000e-04 0.000000000000e+00 0.000000000000e+00
7.200000000000e-04 0.000000000000e+00 0.000000000000e+00
7.400000000000e-04 0.000000000000e+00 0.000000000000e+00
7.600000000000e-04 0.000000000000e+00 0.000000000000e+00
7.800000000000e-04 0.000000000000e+00 0.000000000000e+00
8.000000000000e-04 0.000000000000e+00 0.000000000000e+00
8.200000000000e-04 0.000000000000e+00 0.000000000000e+00
8.400000000000e-04 0.000000000000e+00 0.000000000000e+00
8.600000000000e-04 0.000000000000e+00 0.000000000000e+00
8.800000000000e-04 0.000000000000e+00 0.000000000000e+00
9.000000000000e-04 0.000000000000e+00 0.000000000000e+00
9.200000000000e-04 0.000000000000e+00 0.000000000000e+00
9.400000000000e-04 0.000000000000e+00 0.000000000000e+00
9.600000000000e-04 0.000000000000e+00 0.000000000000e+00
9.800000000000e-04 0.000000000000e+00 0.000000000000e+00
1.000000000000e-03 0.000000000000e+00 0.000000000000e+00
1.020000000000e-03 0.000000000000e+00 0.000000000000e+00
1.040000000000e-03 0.000000000000e+00 0.000000000000e+00
1.060000000000e-03 0.000000000000e+00 0.000000000000e+00
1.080000000000e-03 0.000000000000e+00 0.000000000000e+00
1.100000000000e-03 0.000000000000e+00 0.000000000000e+00
1.120000000000e-03 0.000000000000e+00 0.000000000000e+00
1.140000000000e-03 0.000000000000e+00 0.000000000000e+00
1.160000000000e-03 0.000000000000e+00 0.000000000000e+00
1.180000000000e-03 0.000000000000e+00 0.000000000000e+00
1.200000000000e-03 0.000000000000e+00 0.000000000000e+00
1.220000000000e-03 0.000000000000e+00 0.000000000000e+00
1.240000000000e-03 0.000000000000e+00 0.000000000000e+00
1.260000000000e-03 0.000000000000e+00 0.000000000000e+00
1.280000000000e-03 0.000000000000e+00 0.000000000000e+00
1.300000000000e-03 0.000000000000e+00 0.000000000000e+00
1.320000000000e-03 0.000000000000e+00 0.000000000000e+00
1.340000000000e-03 0.000000000000e+00 0.000000000000e+00
1.360000000000e-03 0.000000000000e+00 0.000000000000e+00
1.380000000000e-03 0.000000000000e+00 0.000000000000e+00
1.400000000000e-03 0.000000000000e+00 0.000000000000e+00
1.420000000000e-03 0.000000000000e+00 0.000000000000e+00
1.440000000000e-03 0.000000000000e+00 0.000000000000e+00
1.460000000000e-03 0.000000000000e+00 0.000000000000e+00
1.480000000000e-03 0.000000000000e+00 0.000000000000e+00
1.500000000000e-03 0.000000000000e+00 0.000000000000e+00
1.520000000000e-03 0.000000000000e+00 0.000000000000e+00
1.540000000000e-03 0.000000000000e+00 0.000000000000e+00
1.560000000000e-03 0.000000000000e+00 0.000000000000e+00
1.580000000000e-03 0.000000000000e+00 0.000000000000e+00
1.600000000000e-03 0.000000000000e+00 0.000000000000e+00
1.620000000000e-03 0.000000000000e+00 0.000000000000e+00
1.640000000000e-03 0.000000000000e+00 0.000000000000e+00
1.660000000000e-03 0.000000000000e+00 0.000000000000e+00
1.680000000000e-03 0.000000000000e+00 0.000000000000e+00
1.700000000000e-03 0.000000000000e+00 0.000000000000e+00
1.720000000000e-03 0.000000000000e+00 0.000000000000e+00
1.740000000000e-03 0.000000000000e+00 0.000000000000e+00
1.760000000000e-03 0.000000000000e+00 0.000000000000e+00
1.780000000000e-03 0.000000000000e+00 0.000000000000e+00
1.800000000000e-03 0.000000000000e+00 0.000000000000e+00
1.820000000000e-03 0.000000000000e+00 0.000000000000e+00
1.840000000000e-03 0.000000000000e+00 0.000000000000e+00
1.860000000000e-03 0.000000000000e+00 0.000000000000e+00
1.880000000000e-03 0.000000000000e+00 0.000000000000e+00
1.900000000000e-03 0.000000000000e+00 0.000000000000e+00
1.920000000000e-03 0.000000000000e+00 0.000000000000e+00
1.940000000000e-03 0.000000000000e+00 0.000000000000e+00
1.960000000000e-03 0.000000000000e+00 0.000000000000e+00
1.980000000000e-03 0.000000000000e+00 0.000000000000e+00
2.000000000000e-03 0.000000000000e+00 0.000000000000e+00
CELLS 100 300
2 0 1
2 1 2
2 2 3
2 3 4
2 4 5
2 5 6
2 6 7
2 7 8
2 8 9
2 9 10
2 10 11
2 11 12
2 12 13
2 13 14
2 14 15
2 15 16
2 16 17
2 17 18
2 18 19
2 19 20
2 20 21
2 21 22
2 22 23
2 23 24
2 24 25
2 25 26
2 26 27
2 27 28
2 28 29
2 29 30
2 30 31
2 31 32
2 32 33
2 33 34
2 34 35
2 35 36
2 36 37
2 37 38
2 38 39
2 39 40
2 40 41
2 41 42
2 42 43
2 43 44
2 44 45
2 45 46
2 46 47
2 47 48
2 48 49
2 49 50
2 50 51
2 51 52
2 52 53
2 53 54
2 54 55
2 55 56
2 56 57
2 57 58
2 58 59
2 59 60
2 60 61
2 61 62
2 62 63
2 63 64
2 64 65
2 65 66
2 66 67
2 67 68
2 68 69
2 69 70
2 70 71
2 71 72
2 72 73
2 73 74
2 74 75
2 75 76
2 76 77
2 77 78
2 78 79
2 79 80
2 80 81
2 81 82
2 82 83
2 83 84
2 84 85
2 85 86
2 86 87
2 87 88
2 88 89
2 89 90
2 90 91
2 91 92
2 92 93
2 93 94
2 94 95
2 95 96
2 96 97
2 97 98
2 98 99
2 99 100

CELL_TYPES 100
3
3
3
3
3
3
3
3
3
3
3
3
3
3
3
3
3
3
3
3
3
3
3
3
3
3
3
3
3
3
3
3
3
3
3
3
3
3
3
3
3
3
3
3
3
3
3
3
3
3
3
3
3
3
3
3
3
3
3
3
3
3
3
3
3
3
3
3
3
3
3
3
3
3
3
3
3
3
3
3
3
3
3
3
3
3
3
3
3
3
3
3
3
3
3
3
3
3
3
3

POINT_DATA 101
SCALARS HEAD double 1
LOOKUP_TABLE default
1.000000000000e+01
1.000000000000e+01
1.000000000000e+01
1.000000000000e+01
1.000000000000e+01
1.000000000000e+01
1.000000000000e+01
1.000000000000e+01
1.000000000000e+01
1.000000000000e+01
1.000000000000e+01
1.000000000000e+01
1.000000000000e+01
1.000000000000e+01
1.000000000000e+01
1.000000000000e+01
1.000000000000e+01
1.000000000000e+01
1.000000000000e+01
1.000000000000e+01
1.000000000000e+01
1.000000000000e+01
1.000000000000e+01
1.000000000000e+01
1.000000000000e+01
1.000000000000e+01
1.000000000000e+01
1.000000000000e+01
1.000000000000e+01
1.000000000000e+01
1.000000000000e+01
1.000000000000e+01
1.000000000000e+01
1.000000000000e+01
1.000000000000e+01
1.000000000000e+01
1.000000000000e+01
1.000000000000e+01
1.000000000000e+01
1.000000000000e+01
1.000000000000e+01
1.000000000000e+01
1.000000000000e+01
1.000000000000e+01
1.000000000000e+01
1.000000000000e+01
1.000000000000e+01
1.000000000000e+01
1.000000000000e+01
1.000000000000e+01
1.000000000000e+01
1.000000000000e+01
1.000000000000e+01
1.000000000000e+01
1.000000000000e+01
1.000000000000e+01
1.000000000000e+01
1.000000000000e+01
1.000000000000e+01
1.000000000000e+01
1.000000000000e+01
1.000000000000e+01
1.000000000000e+01
1.000000000000e+01
1.000000000000e+01
1.000000000000e+01
1.000000000000e+01
1.000000000000e+01
1.000000000000e+01
1.000000000000e+01
1.000000000000e+01
1.000000000000e+01
1.000000000000e+01
1.000000000000e+01
1.000000000000e+01
1.000000000000e+01
1.000000000000e+01
1.000000000000e+01
1.000000000000e+01
1.000000000000e+01
1.000000000000e+01
1.000000000000e+01
1.000000000000e+01
1.000000000000e+01
1.000000000000e+01
1.000000000000e+01
1.000000000000e+01
1.000000000000e+01
1.000000000000e+01
1.000000000000e+01
1.000000000000e+01
1.000000000000e+01
1.000000000000e+01
1.000000000000e+01
1.000000000000e+01
1.000000000000e+01
1.000000000000e+01
1.000000000000e+01
1.000000000000e+01
1.000000000000e+01
1.000000000000e+01
SCALARS 1-Ael double 1
LOOKUP_TABLE default
1.186390678990e+00
1.182996342570e+00
1.179477016199e+00
1.176018517820e+00
1.172620194234e+00
1.169281353948e+00
1.166001298535e+00
1.162779316473e+00
1.159614686525e+00
1.156506678552e+00
1.153454554921e+00
1.150457571655e+00
1.147514979584e+00
1.144626025419e+00
1.141789952757e+00
1.139006003043e+00
1.136273416464e+00
1.133591432800e+00
1.130959292215e+00
1.128376235996e+00
1.125841507256e+00
1.123354351580e+00
1.120914017632e+00
1.118519757719e+00
1.116170828309e+00
1.113866490530e+00
1.111606010602e+00
1.109388660262e+00
1.107213717141e+00
1.105080465111e+00
1.102988194609e+00
1.100936202924e+00
1.098923794464e+00
1.096950280991e+00
1.095014981837e+00
1.093117224097e+00
1.091256342798e+00
1.089431681050e+00
1.087642590177e+00
1.085888429823e+00
1.084168568065e+00
1.082482381473e+00
1.080829255194e+00
1.079208582990e+00
1.077619767281e+00
1.076062219175e+00
1.074535358481e+00
1.073038613712e+00
1.071571422078e+00
1.070133229479e+00
1.068723490474e+00
1.067341668254e+00
1.065987234606e+00
1.064659669860e+00
1.063358462848e+00
1.062083110840e+00
1.060833119489e+00
1.059608002751e+00
1.058407282834e+00
1.057230490102e+00
1.056077163012e+00
1.054946848020e+00
1.053839099505e+00
1.052753479681e+00
1.051689558501e+00
1.050646913564e+00
1.049625130036e+00
1.048623800532e+00
1.047642525043e+00
1.046680910820e+00
1.045738572281e+00
1.044815130917e+00
1.043910215185e+00
1.043023460405e+00
1.042154508673e+00
1.041303008743e+00
1.040468615937e+00
1.039650992040e+00
1.038849805204e+00
1.038064729835e+00
1.037295446510e+00
1.036541641865e+00
1.035803008500e+00
1.035079244881e+00
1.034370055244e+00
1.033675149491e+00
1.032994243105e+00
1.032327057045e+00
1.031673317655e+00
1.031032756572e+00
1.030405110632e+00
1.029790121778e+00
1.029187536974e+00
1.028597108106e+00
1.028018591913e+00
1.027451749821e+00
1.026896348190e+00
1.026352157008e+00
1.025818954137e+00
1.025296509892e+00
1.024784587536e+00
SCALARS 2-Bel double 1
LOOKUP_TABLE default
8.136093210100e-01
8.170035837783e-01
8.205229313327e-01
8.239814261154e-01
8.273797524425e-01
8.307185937231e-01
8.339986504892e-01
8.372206337214e-01
8.403852648023e-01
8.434932738352e-01
8.465453984703e-01
8.495423826840e-01
8.524849756462e-01
8.553739306532e-01
8.582100041086e-01
8.609939545715e-01
8.637265418537e-01
8.664085261808e-01
8.690406673922e-01
8.716237242009e-01
8.741584534958e-01
8.766456096938e-01
8.790859441336e-01
8.814802045108e-01
8.838291343532e-01
8.861334725419e-01
8.883939528546e-01
8.906113035563e-01
8.927862470184e-01
8.949194993664e-01
8.970117701679e-01
8.990637621335e-01
9.010761708574e-01
9.030496845783e-01
9.049849839641e-01
9.068827419209e-01
9.087436234226e-01
9.105682853608e-01
9.123573764149e-01
9.141115369323e-01
9.158313988477e-01
9.175175855819e-01
9.191707119960e-01
9.207913843286e-01
9.223802001547e-01
9.239377483670e-01
9.254646091623e-01
9.269613540275e-01
9.284285457459e-01
9.298667384257e-01
9.312764775050e-01
9.326582997931e-01
9.340127335058e-01
9.353402983104e-01
9.366415053764e-01
9.379168574336e-01
9.391668488331e-01
9.403919656093e-01
9.415926855652e-01
9.427694783320e-01
9.439228054564e-01
9.450531204773e-01
9.461608690154e-01
9.472464888632e-01
9.483104100678e-01
9.493530550216e-01
9.503748385697e-01
9.513761680862e-01
9.523574435893e-01
9.533190578257e-01
9.542613963752e-01
9.551848377496e-01
9.560897534935e-01
9.569765082790e-01
9.578454600199e-01
9.586969599556e-01
9.595313527655e-01
9.603489766662e-01
9.611501635083e-01
9.619352388797e-01
9.627045222075e-01
9.634583268560e-01
9.641969602234e-01
9.649207238433e-01
9.656299134829e-01
9.663248192358e-01
9.670057256232e-01
9.676729116849e-01
9.683266510752e-01
9.689672121591e-01
9.695948580998e-01
9.702098469530e-01
9.708124317583e-01
9.714028606218e-01
9.719813768326e-01
9.725482188595e-01
9.731036207232e-01
9.736478110639e-01
9.741810169779e-01
9.747034502036e-01
9.752154124636e-01
SCALARS 3-H double 1
LOOKUP_TABLE default
1.994498392549e-04
2.994855216557e-03
1.994499048278e-04
1.995315934267e-04
1.995351712093e-04
1.994498828635e-04
1.995335353403e-04
1.994498771115e-04
1.995340898425e-04
1.995323165546e-04
1.995318069478e-04
1.995410349787e-04
1.994498886948e-04
1.995315055655e-04
1.995353686363e-04
1.995315104883e-04
1.995317395975e-04
1.995314352210e-04
1.995315744607e-04
1.995315295807e-04
1.994499329714e-04
1.995315278774e-04
1.995315392177e-04
1.995315618409e-04
1.994498945686e-04
1.994499013449e-04
1.994498897078e-04
1.995314207363e-04
1.994499244234e-04
1.994499559946e-04
1.994498925983e-04
1.995316972548e-04
1.995315809346e-04
1.994499092395e-04
1.995315420962e-04
1.995317349926e-04
1.995317458674e-04
1.994499017156e-04
1.994499355838e-04
1.994499045819e-04
1.995313812177e-04
1.995318086068e-04
1.994499645553e-04
1.995314581060e-04
1.995317371644e-04
1.995314365885e-04
1.994498984035e-04
1.994499228438e-04
1.995315940511e-04
1.995314511090e-04
1.995316456098e-04
1.995315491077e-04
1.994499292015e-04
1.994499178856e-04
1.994498902467e-04
1.995316396164e-04
1.995316414533e-04
1.994498883784e-04
1.995315209396e-04
1.995316178994e-04
1.995314649462e-04
1.994499026742e-04
1.995318438459e-04
1.995316444569e-04
1.994498901591e-04
1.995319065628e-04
1.995316580142e-04
1.994498933150e-04
1.994499059268e-04
1.994498776489e-04
1.994498965975e-04
1.995320423637e-04
1.995322184031e-04
1.995315938623e-04
1.994499053410e-04
1.995315283165e-04
1.994498966966e-04
1.995321684295e-04
1.994499092234e-04
1.995319393839e-04
1.995318017772e-04
1.994499281651e-04
1.994498950327e-04
1.994499058560e-04
1.994498856808e-04
1.995318804827e-04
1.994499051223e-04
1.994499065431e-04
1.994499021866e-04
1.994499042617e-04
1.994498996717e-04
1.995319171355e-04
1.994499170912e-04
1.995317881415e-04
1.995320871603e-04
2.206054739328e-04
1.994498947451e-04
1.996085774084e-04
1.995218513798e-04
1.996168821713e-04
1.994498439989e-04
SCALARS 4-Inrt double 1
LOOKUP_TABLE default
0.000000000000e+00
0.000000000000e+00
0.000000000000e+00
0.000000000000e+00
0.000000000000e+00
0.000000000000e+00
0.000000000000e+00
0.000000000000e+00
0.000000000000e+00
0.000000000000e+00
0.000000000000e+00
0.000000000000e+00
0.000000000000e+00
0.000000000000e+00
0.000000000000e+00
0.000000000000e+00
0.000000000000e+00
0.000000000000e+00
0.000000000000e+00
0.000000000000e+00
0.000000000000e+00
0.000000000000e+00
0.000000000000e+00
0.000000000000e+00
0.000000000000e+00
0.000000000000e+00
0.000000000000e+00
0.000000000000e+00
0.000000000000e+00
0.000000000000e+00
0.000000000000e+00
0.000000000000e+00
0.000000000000e+00
0.000000000000e+00
0.000000000000e+00
0.000000000000e+00
0.000000000000e+00
0.000000000000e+00
0.000000000000e+00
0.000000000000e+00
0.000000000000e+00
0.000000000000e+00
0.000000000000e+00
0.000000000000e+00
0.000000000000e+00
0.000000000000e+00
0.000000000000e+00
0.000000000000e+00
0.000000000000e+00
0.000000000000e+00
0.000000000000e+00
0.000000000000e+00
0.000000000000e+00
0.000000000000e+00
0.000000000000e+00
0.000000000000e+00
0.000000000000e+00
0.000000000000e+00
0.000000000000e+00
0.000000000000e+00
0.000000000000e+00
0.000000000000e+00
0.000000000000e+00
0.000000000000e+00
0.000000000000e+00
0.000000000000e+00
0.000000000000e+00
0.000000000000e+00
0.000000000000e+00
0.000000000000e+00
0.000000000000e+00
0.000000000000e+00
0.000000000000e+00
0.000000000000e+00
0.000000000000e+00
0.000000000000e+00
0.000000000000e+00
0.000000000000e+00
0.000000000000e+00
0.000000000000e+00
0.000000000000e+00
0.000000000000e+00
0.000000000000e+00
0.000000000000e+00
0.000000000000e+00
0.000000000000e+00
0.000000000000e+00
0.000000000000e+00
0.000000000000e+00
0.000000000000e+00
0.000000000000e+00
0.000000000000e+00
0.000000000000e+00
0.000000000000e+00
0.000000000000e+00
0.000000000000e+00
0.000000000000e+00
0.000000000000e+00
0.000000000000e+00
0.000000000000e+00
0.000000000000e+00
SCALARS 5-O double 1
LOOKUP_TABLE default
1.009972368221e-02
9.976589526654e-05
1.599192737376e-03
7.814004611301e-04
9.334057133691e-04
8.364704866607e-04
8.074661538574e-04
7.637579901329e-04
7.267562710626e-04
6.906628972092e-04
6.569001028605e-04
6.248939043312e-04
5.946851660290e-04
5.662973741251e-04
5.393799317974e-04
5.140406680908e-04
9.980804487731e-05
9.980887237762e-05
9.981523989075e-05
9.981437347198e-05
9.977883119462e-05
9.982262518882e-05
3.725392424745e-04
9.983029215042e-05
9.979461405135e-05
3.275589727232e-04
9.980195007489e-05
9.984671750981e-05
9.981198396595e-05
9.982294588629e-05
9.982436919043e-05
9.986917626544e-05
9.987838763719e-05
9.984362372707e-05
9.989189215600e-05
9.990338899587e-05
9.990962800524e-05
9.987814053914e-05
9.989368552829e-05
9.990274912766e-05
9.995454045519e-05
9.996443568330e-05
9.993760494754e-05
1.000004944616e-04
1.000115897605e-04
1.676953779481e-04
1.000129654006e-04
1.000226294983e-04
1.000964724652e-04
1.001764827124e-04
1.001351339407e-04
1.001680667114e-04
1.001806036808e-04
1.002022931475e-04
1.004507427585e-04
1.003222506292e-04
1.003606437487e-04
1.324451605943e-04
3.605586926421e-04
4.740911782851e-04
1.006554771576e-04
8.742775650807e-04
1.418976541376e-04
3.833856778203e-03
1.013038883179e-04
3.107022651581e-04
1.434800782332e-04
1.028088260385e-04
1.164322761333e-04
1.601110423300e-03
4.366719590257e-04
1.053165176751e-04
1.128400356599e-04
1.094117767088e-04
1.112927919027e-04
1.109782579947e-04
1.101917082952e-04
1.094369707891e-04
1.087566577820e-04
1.082841106100e-04
1.077520201855e-04
1.072980654815e-04
1.067871263664e-04
1.064043521454e-04
1.060031313733e-04
1.056530519043e-04
1.052694053018e-04
1.049684571441e-04
1.046121161577e-04
1.043342721329e-04
1.040920521949e-04
1.037552485938e-04
1.038833388226e-04
1.021714744124e-04
1.075957185126e-04
9.972495817345e-05
1.000170277015e-04
9.972494008455e-05
8.647599886907e-04
9.976569795781e-05
1.009972319545e-02
SCALARS 6-Zz double 1
LOOKUP_TABLE default
0.000000000000e+00
0.000000000000e+00
0.000000000000e+00
0.000000000000e+00
0.000000000000e+00
0.000000000000e+00
0.000000000000e+00
0.000000000000e+00
0.000000000000e+00
0.000000000000e+00
0.000000000000e+00
0.000000000000e+00
0.000000000000e+00
0.000000000000e+00
0.000000000000e+00
0.000000000000e+00
0.000000000000e+00
0.000000000000e+00
0.000000000000e+00
0.000000000000e+00
0.000000000000e+00
0.000000000000e+00
0.000000000000e+00
0.000000000000e+00
0.000000000000e+00
0.000000000000e+00
0.000000000000e+00
0.000000000000e+00
0.000000000000e+00
0.000000000000e+00
0.000000000000e+00
0.000000000000e+00
0.000000000000e+00
0.000000000000e+00
0.000000000000e+00
0.000000000000e+00
0.000000000000e+00
0.000000000000e+00
0.000000000000e+00
0.000000000000e+00
0.000000000000e+00
0.000000000000e+00
0.000000000000e+00
0.000000000000e+00
0.000000000000e+00
0.000000000000e+00
0.000000000000e+00
0.000000000000e+00
0.000000000000e+00
0.000000000000e+00
0.000000000000e+00
0.000000000000e+00
0.000000000000e+00
0.000000000000e+00
0.000000000000e+00
0.000000000000e+00
0.000000000000e+00
0.000000000000e+00
0.000000000000e+00
0.000000000000e+00
0.000000000000e+00
0.000000000000e+00
0.000000000000e+00
0.000000000000e+00
0.000000000000e+00
0.000000000000e+00
0.000000000000e+00
0.000000000000e+00
0.000000000000e+00
0.000000000000e+00
0.000000000000e+00
0.000000000000e+00
0.000000000000e+00
0.000000000000e+00
0.000000000000e+00
0.000000000000e+00
0.000000000000e+00
0.000000000000e+00
0.000000000000e+00
0.000000000000e+00
0.000000000000e+00
0.000000000000e+00
0.000000000000e+00
0.000000000000e+00
0.000000000000e+00
0.000000000000e+00
0.000000000000e+00
0.000000000000e+00
0.000000000000e+00
0.000000000000e+00
0.000000000000e+00
0.000000000000e+00
0.000000000000e+00
0.000000000000e+00
0.000000000000e+00
0.000000000000e+00
0.000000000000e+00
0.000000000000e+00
1.810751055457e-18
0.000000000000e+00
0.000000000000e+00
SCALARS Ael double 1
LOOKUP_TABLE default
 1.186390703098e-03
 1.253415088178e-03
 1.324454031203e-03
 1.399753481350e-03
 1.479574753477e-03
 1.564195361240e-03
 1.653910065221e-03
 1.749031942040e-03
 1.849893532982e-03
 1.956848061387e-03
 2.070270727475e-03
 2.190560084284e-03
 2.318139500175e-03
 2.453458713250e-03
 2.596995483516e-03
 2.749257348936e-03
 2.910783491935e-03
 3.082146723293e-03
 3.263955590865e-03
 3.456856620961e-03
 3.661536700782e-03
 3.878725610773e-03
 4.109198716395e-03
 4.353779829307e-03
 4.613344248715e-03
 4.888821994193e-03
 5.181201242083e-03
 5.491531978321e-03
 5.820929881330e-03
 6.170580449505e-03
 6.541743388727e-03
 6.935757276299e-03
 7.354044518782e-03
 7.798116622241e-03
 8.269579794647e-03
 8.770140901403e-03
 9.301613796259e-03
 9.865926051349e-03
 1.046512611153e-02
 1.110139089977e-02
 1.177703390225e-02
 1.249451376312e-02
 1.325644342146e-02
 1.406559982453e-02
 1.492493425362e-02
 1.583758330133e-02
 1.680688054138e-02
 1.783636893469e-02
 1.892981401821e-02
 2.009121792599e-02
 2.132483429501e-02
 2.263518411184e-02
 2.402707255925e-02
 2.550560692626e-02
 2.707621564868e-02
 2.874466855155e-02
 3.051709836956e-02
 3.240002362600e-02
 3.440037295633e-02
 3.652551096745e-02
 3.878326572995e-02
 4.118195800627e-02
 4.373043232481e-02
 4.643809001634e-02
 4.931492433702e-02
 5.237155780982e-02
 5.561928192443e-02
 5.907009934505e-02
 6.273676878441e-02
 6.663285271244e-02
 7.077276807925e-02
 7.517184024251e-02
 7.984636030207e-02
 8.481364605729e-02
 9.009210681600e-02
 9.570131229864e-02
 1.016620658968e-01
 1.079964825609e-01
 1.147280716107e-01
 1.218818247788e-01
 1.294843098189e-01
 1.375637700303e-01
 1.461502300735e-01
 1.552756084733e-01
 1.649738372345e-01
 1.752809890174e-01
 1.862354123539e-01
 1.978778754109e-01
 2.102517188423e-01
 2.234030183046e-01
 2.373807572472e-01
 2.522370106268e-01
 2.680271402386e-01
 2.848100023947e-01
 3.026481687440e-01
 3.216081610210e-01
 3.417607007643e-01
 3.631809743423e-01
 3.859489166062e-01
 4.101495052821e-01
 4.358731017010e-01
SCALARS Bel double 1
LOOKUP_TABLE default
 8.136093375427e-04
 8.659456594281e-04
 9.216828963904e-04
 9.810413877239e-04
 1.044255735031e-03
 1.111575631940e-03
 1.183266854228e-03
 1.259612283515e-03
 1.340913004435e-03
 1.427489469573e-03
 1.519682739311e-03
 1.617855800602e-03
 1.722394969874e-03
 1.833711385382e-03
 1.952242594700e-03
 2.078454243412e-03
 2.212841871419e-03
 2.355932823735e-03
 2.508288283023e-03
 2.670505431632e-03
 2.843219751359e-03
 3.027107469688e-03
 3.222888161836e-03
 3.431327518477e-03
 3.653240289714e-03
 3.889493416459e-03
 4.141009361161e-03
 4.408769650540e-03
 4.693818643779e-03
 4.997267540545e-03
 5.320298644008e-03
 5.664169895116e-03
 6.030219695333e-03
 6.419872036155e-03
 6.834641954889e-03
 7.276141337443e-03
 7.746085090124e-03
 8.246297703899e-03
 8.778720236033e-03
 9.345417735618e-03
 9.948587141141e-03
 1.059056568011e-02
 1.127383980252e-02
 1.200105468225e-02
 1.277502432208e-02
 1.359874230103e-02
 1.447539320462e-02
 1.540836478125e-02
 1.640126087103e-02
 1.745791515602e-02
 1.858240578381e-02
 1.977907092010e-02
 2.105252528915e-02
 2.240767776470e-02
 2.384975007806e-02
 2.538429671435e-02
 2.701722607200e-02
 2.875482296604e-02
 3.060377256003e-02
 3.257118581748e-02
 3.466462656910e-02
 3.689214029836e-02
 3.926228475434e-02
 4.178416250775e-02
 4.446745557346e-02
 4.732246223033e-02
 5.036013617810e-02
 5.359212817918e-02
 5.703083034307e-02
 6.068942322102e-02
 6.458192588896e-02
 6.872324920847e-02
 7.312925246694e-02
 7.781680361144e-02
 8.280384330406e-02
 8.810945304094e-02
 9.375392759282e-02
 9.975885204078e-02
 1.061471836987e-01
 1.129433392323e-01
 1.201732873038e-01
 1.278646470930e-01
 1.360467930670e-01
 1.447509663940e-01
 1.540103934246e-01
 1.638604116843e-01
 1.743386038593e-01
 1.854849402752e-01
 1.973419304140e-01
 2.099547840362e-01
 2.233715825206e-01
 2.376434610678e-01
 2.528248024563e-01
 2.689734430821e-01
 2.861508920680e-01
 3.044225642344e-01
 3.238580279586e-01
 3.445312682889e-01
 3.665209685015e-01
 3.899108027216e-01
 4.147897732138e-01
SCALARS H double 1
LOOKUP_TABLE default
 1.106904901085e+02
 1.171858873655e+02
 1.242023452782e+02
 1.316550261169e+02
 1.395713694841e+02
 1.479805566784e+02
 1.569136099417e+02
 1.664035129563e+02
 1.764853338554e+02
 1.871963574256e+02
 1.985762252933e+02
 2.106670850902e+02
 2.235137490330e+02
 2.371638625490e+02
 2.516680835768e+02
 2.670802732143e+02
 2.834577001415e+02
 3.008610633463e+02
 3.193556616387e+02
 3.390099806046e+02
 3.598967618631e+02
 3.820944532950e+02
 4.056855798965e+02
 4.307581182228e+02
 4.574055835131e+02
 4.857274771285e+02
 5.158294810078e+02
 5.478239350379e+02
 5.818308247191e+02
 6.179769758979e+02
 6.563971370909e+02
 6.972355834912e+02
 7.406449224777e+02
 7.867876206231e+02
 8.358364238678e+02
 8.879750058992e+02
 9.433985286165e+02
 1.002315092574e+03
 1.064945072539e+03
 1.131523284040e+03
 1.202299500032e+03
 1.277539084436e+03
 1.357524477126e+03
 1.442555079332e+03
 1.532950775873e+03
 1.629050466261e+03
 1.731214884919e+03
 1.839827822154e+03
 1.955296988528e+03
 2.078055913664e+03
 2.208565972659e+03
 2.347317371926e+03
 2.494831567312e+03
 2.651662624352e+03
 2.818400237849e+03
 2.995671082561e+03
 3.184141517085e+03
 3.384520324620e+03
 3.597560768638e+03
 3.824064092323e+03
 4.064882163795e+03
 4.320920700517e+03
 4.593142976874e+03
 4.882572728021e+03
 5.190299608946e+03
 5.517480962689e+03
 5.865347981027e+03
 6.235209826755e+03
 6.628458477309e+03
 7.046573700229e+03
 7.491130287738e+03
 7.963800754675e+03
 8.466364696772e+03
 9.000714176064e+03
 9.568860988953e+03
 1.017294430441e+04
 1.081523869213e+04
 1.149816276014e+04
 1.222428821057e+04
 1.299634956452e+04
 1.381725446293e+04
 1.469009462938e+04
 1.561815752538e+04
 1.660493873885e+04
 1.765415516780e+04
 1.876975902738e+04
 1.995595275068e+04
 2.121720483089e+04
 2.255826666604e+04
 2.398419047180e+04
 2.550034832635e+04
 2.711245242284e+04
 2.882657660357e+04
 3.064917925665e+04
 3.258712766654e+04
 3.464772391345e+04
 3.683873234143e+04
 3.916840912058e+04
 4.164553185124e+04
 4.427943738846e+04
 4.708014431404e+04
SCALARS Inrt double 1
LOOKUP_TABLE default
 9.989999999797e-01
 9.989403195872e-01
 9.988769315068e-01
 9.988096025321e-01
 9.987380847221e-01
 9.986621144684e-01
 9.985814115041e-01
 9.984956778498e-01
 9.984045966925e-01
 9.983078311943e-01
 9.982050232248e-01
 9.980957920141e-01
 9.979797327198e-01
 9.978564149036e-01
 9.977253809119e-01
 9.975861441527e-01
 9.974381872650e-01
 9.972809601707e-01
 9.971138780048e-01
 9.969363189128e-01
 9.967476217101e-01
 9.965470833929e-01
 9.963339564908e-01
 9.961074462526e-01
 9.958667076536e-01
 9.956108422137e-01
 9.953388946132e-01
 9.950498490960e-01
 9.947426256433e-01
 9.944160759058e-01
 9.940689788792e-01
 9.937000363042e-01
 9.933078677769e-01
 9.928910055484e-01
 9.924478889961e-01
 9.919768587443e-01
 9.914761504129e-01
 9.909438879703e-01
 9.903780766655e-01
 9.897765955124e-01
 9.891371892986e-01
 9.884574600883e-01
 9.877348581868e-01
 9.869666725337e-01
 9.861500204867e-01
 9.852818369600e-01
 9.843588628740e-01
 9.833776328739e-01
 9.823344622712e-01
 9.812254331577e-01
 9.800463796411e-01
 9.787928721452e-01
 9.774602007164e-01
 9.760433572733e-01
 9.745370167321e-01
 9.729355169377e-01
 9.712328373236e-01
 9.694225762203e-01
 9.674979267283e-01
 9.654516510623e-01
 9.632760532715e-01
 9.609629502328e-01
 9.585036408073e-01
 9.558888730442e-01
 9.531088093078e-01
 9.501529891970e-01
 9.470102901170e-01
 9.436688853540e-01
 9.401161994971e-01
 9.363388610353e-01
 9.323226519553e-01
 9.280524541474e-01
 9.235121924176e-01
 9.186847738924e-01
 9.135520235868e-01
 9.080946158918e-01
 9.022920017262e-01
 8.961223310738e-01
 8.895623706177e-01
 8.825874161578e-01
 8.751711994862e-01
 8.672857893628e-01
 8.589014862233e-01
 8.499867102205e-01
 8.405078821765e-01
 8.304292969976e-01
 8.197129890745e-01
 8.083185891600e-01
 7.962031721855e-01
 7.833210954419e-01
 7.696238265144e-01
 7.550597603232e-01
 7.395740245811e-01
 7.231082729321e-01
 7.056004649933e-01
 6.869846324706e-01
 6.671906304655e-01
 6.461438730355e-01
 6.237650520123e-01
 5.999698380167e-01
 5.746685625425e-01
SCALARS O double 1
LOOKUP_TABLE default
 5.534525505425e+01
 5.859294220305e+01
 6.210117432159e+01
 6.582751386917e+01
 6.978568579319e+01
 7.399027932416e+01
 7.845680597409e+01
 8.320175747640e+01
 8.824266792735e+01
 9.359817971212e+01
 9.928811364614e+01
 1.053335435445e+02
 1.117568755160e+02
 1.185819322741e+02
 1.258340427879e+02
 1.335401376067e+02
 1.417288510703e+02
 1.504305326728e+02
 1.596778318190e+02
 1.695049913020e+02
 1.799483819313e+02
 1.910472276472e+02
 2.028427909480e+02
 2.153790601111e+02
 2.287027927563e+02
 2.428637395640e+02
 2.579147415037e+02
 2.739119685188e+02
 2.909154133594e+02
 3.089884889488e+02
 3.281985695453e+02
 3.486177927455e+02
 3.703224622387e+02
 3.933938113114e+02
 4.179182129338e+02
 4.439875039495e+02
 4.716992653081e+02
 5.011575472868e+02
 5.324725372696e+02
 5.657616430199e+02
 6.011497510161e+02
 6.387695432181e+02
 6.787622395630e+02
 7.212775406658e+02
 7.664753889361e+02
 8.145252341303e+02
 8.656074434593e+02
 9.199139120770e+02
 9.776484952641e+02
 1.039027957832e+03