# vtk DataFile Version 3.0
Unstructured Grid from OpenGeoSys
ASCII
DATASET UNSTRUCTURED_GRID
FIELD TimesAndCycles 2
TIME 1 1 double
4.000000000000e+03
CYLCE 1 1 long
40
POINTS 101 double
0.000000000000e+00 0.000000000000e+00 0.000000000000e+00
2.000000000000e-05 0.000000000000e+00 0.000000000000e+00
4.000000000000e-05 0.000000000000e+00 0.000000000000e+00
6.000000000000e-05 0.000000000000e+00 0.000000000000e+00
8.000000000000e-05 0.000000000000e+00 0.000000000000e+00
1.000000000000e-04 0.000000000000e+00 0.000000000000e+00
1.200000000000e-04 0.000000000000e+00 0.000000000000e+00
1.400000000000e-04 0.000000000000e+00 0.000000000000e+00
1.600000000000e-04 0.000000000000e+00 0.000000000000e+00
1.800000000000e-04 0.000000000000e+00 0.000000000000e+00
2.000000000000e-04 0.000000000000e+00 0.000000000000e+00
2.200000000000e-04 0.000000000000e+00 0.000000000000e+00
2.400000000000e-04 0.000000000000e+00 0.000000000000e+00
2.600000000000e-04 0.000000000000e+00 0.000000000000e+00
2.800000000000e-04 0.000000000000e+00 0.000000000000e+00
3.000000000000e-04 0.000000000000e+00 0.000000000000e+00
3.200000000000e-04 0.000000000000e+00 0.000000000000e+00
3.400000000000e-04 0.000000000000e+00 0.000000000000e+00
3.600000000000e-04 0.000000000000e+00 0.000000000000e+00
3.800000000000e-04 0.000000000000e+00 0.000000000000e+00
4.000000000000e-04 0.000000000000e+00 0.000000000000e+00
4.200000000000e-04 0.000000000000e+00 0.000000000000e+00
4.400000000000e-04 0.000000000000e+00 0.000000000000e+00
4.600000000000e-04 0.000000000000e+00 0.000000000000e+00
4.800000000000e-04 0.000000000000e+00 0.000000000000e+00
5.000000000000e-04 0.000000000000e+00 0.000000000000e+00
5.200000000000e-04 0.000000000000e+00 0.000000000000e+00
5.400000000000e-04 0.000000000000e+00 0.000000000000e+00
5.600000000000e-04 0.000000000000e+00 0.000000000000e+00
5.800000000000e-04 0.000000000000e+00 0.000000000000e+00
6.000000000000e-04 0.000000000000e+00 0.000000000000e+00
6.200000000000e-04 0.000000000000e+00 0.000000000000e+00
6.400000000000e-04 0.000000000000e+00 0.000000000000e+00
6.600000000000e-04 0.000000000000e+00 0.000000000000e+00
6.800000000000e-04 0.000000000000e+00 0.000000000000e+00
7.000000000000e-04 0.000000000000e+00 0.000000000000e+00
7.200000000000e-04 0.000000000000e+00 0.000000000000e+00
7.400000000000e-04 0.000000000000e+00 0.000000000000e+00
7.600000000000e-04 0.000000000000e+00 0.000000000000e+00
7.800000000000e-04 0.000000000000e+00 0.000000000000e+00
8.000000000000e-04 0.000000000000e+00 0.000000000000e+00
8.200000000000e-04 0.000000000000e+00 0.000000000000e+00
8.400000000000e-04 0.000000000000e+00 0.000000000000e+00
8.600000000000e-04 0.000000000000e+00 0.000000000000e+00
8.800000000000e-04 0.000000000000e+00 0.000000000000e+00
9.000000000000e-04 0.000000000000e+00 0.000000000000e+00
9.200000000000e-04 0.000000000000e+00 0.000000000000e+00
9.400000000000e-04 0.000000000000e+00 0.000000000000e+00
9.600000000000e-04 0.000000000000e+00 0.000000000000e+00
9.800000000000e-04 0.000000000000e+00 0.000000000000e+00
1.000000000000e-03 0.000000000000e+00 0.000000000000e+00
1.020000000000e-03 0.000000000000e+00 0.000000000000e+00
1.040000000000e-03 0.000000000000e+00 0.000000000000e+00
1.060000000000e-03 0.000000000000e+00 0.000000000000e+00
1.080000000000e-03 0.000000000000e+00 0.000000000000e+00
1.100000000000e-03 0.000000000000e+00 0.000000000000e+00
1.120000000000e-03 0.000000000000e+00 0.000000000000e+00
1.140000000000e-03 0.000000000000e+00 0.000000000000e+00
1.160000000000e-03 0.000000000000e+00 0.000000000000e+00
1.180000000000e-03 0.000000000000e+00 0.000000000000e+00
1.200000000000e-03 0.000000000000e+00 0.000000000000e+00
1.220000000000e-03 0.000000000000e+00 0.000000000000e+00
1.240000000000e-03 0.000000000000e+00 0.000000000000e+00
1.260000000000e-03 0.000000000000e+00 0.000000000000e+00
1.280000000000e-03 0.000000000000e+00 0.000000000000e+00
1.300000000000e-03 0.000000000000e+00 0.000000000000e+00
1.320000000000e-03 0.000000000000e+00 0.000000000000e+00
1.340000000000e-03 0.000000000000e+00 0.000000000000e+00
1.360000000000e-03 0.000000000000e+00 0.000000000000e+00
1.380000000000e-03 0.000000000000e+00 0.000000000000e+00
1.400000000000e-03 0.000000000000e+00 0.000000000000e+00
1.420000000000e-03 0.000000000000e+00 0.000000000000e+00
1.440000000000e-03 0.000000000000e+00 0.000000000000e+00
1.460000000000e-03 0.000000000000e+00 0.000000000000e+00
1.480000000000e-03 0.000000000000e+00 0.000000000000e+00
1.500000000000e-03 0.000000000000e+00 0.000000000000e+00
1.520000000000e-03 0.000000000000e+00 0.000000000000e+00
1.540000000000e-03 0.000000000000e+00 0.000000000000e+00
1.560000000000e-03 0.000000000000e+00 0.000000000000e+00
1.580000000000e-03 0.000000000000e+00 0.000000000000e+00
1.600000000000e-03 0.000000000000e+00 0.000000000000e+00
1.620000000000e-03 0.000000000000e+00 0.000000000000e+00
1.640000000000e-03 0.000000000000e+00 0.000000000000e+00
1.660000000000e-03 0.000000000000e+00 0.000000000000e+00
1.680000000000e-03 0.000000000000e+00 0.000000000000e+00
1.700000000000e-03 0.000000000000e+00 0.000000000000e+00
1.720000000000e-03 0.000000000000e+00 0.000000000000e+00
1.740000000000e-03 0.000000000000e+00 0.000000000000e+00
1.760000000000e-03 0.000000000000e+00 0.000000000000e+00
1.780000000000e-03 0.000000000000e+00 0.000000000000e+00
1.800000000000e-03 0.000000000000e+00 0.000000000000e+00
1.820000000000e-03 0.000000000000e+00 0.000000000000e+00
1.840000000000e-03 0.000000000000e+00 0.000000000000e+00
1.860000000000e-03 0.000000000000e+00 0.000000000000e+00
1.880000000000e-03 0.000000000000e+00 0.000000000000e+00
1.900000000000e-03 0.000000000000e+00 0.000000000000e+00
1.920000000000e-03 0.000000000000e+00 0.000000000000e+00
1.940000000000e-03 0.000000000000e+00 0.000000000000e+00
1.960000000000e-03 0.000000000000e+00 0.000000000000e+00
1.980000000000e-03 0.000000000000e+00 0.000000000000e+00
2.000000000000e-03 0.000000000000e+00 0.000000000000e+00
CELLS 100 300
2 0 1
2 1 2
2 2 3
2 3 4
2 4 5
2 5 6
2 6 7
2 7 8
2 8 9
2 9 10
2 10 11
2 11 12
2 12 13
2 13 14
2 14 15
2 15 16
2 16 17
2 17 18
2 18 19
2 19 20
2 20 21
2 21 22
2 22 23
2 23 24
2 24 25
2 25 26
2 26 27
2 27 28
2 28 29
2 29 30
2 30 31
2 31 32
2 32 33
2 33 34
2 34 35
2 35 36
2 36 37
2 37 38
2 38 39
2 39 40
2 40 41
2 41 42
2 42 43
2 43 44
2 44 45
2 45 46
2 46 47
2 47 48
2 48 49
2 49 50
2 50 51
2 51 52
2 52 53
2 53 54
2 54 55
2 55 56
2 56 57
2 57 58
2 58 59
2 59 60
2 60 61
2 61 62
2 62 63
2 63 64
2 64 65
2 65 66
2 66 67
2 67 68
2 68 69
2 69 70
2 70 71
2 71 72
2 72 73
2 73 74
2 74 75
2 75 76
2 76 77
2 77 78
2 78 79
2 79 80
2 80 81
2 81 82
2 82 83
2 83 84
2 84 85
2 85 86
2 86 87
2 87 88
2 88 89
2 89 90
2 90 91
2 91 92
2 92 93
2 93 94
2 94 95
2 95 96
2 96 97
2 97 98
2 98 99
2 99 100

CELL_TYPES 100
3
3
3
3
3
3
3
3
3
3
3
3
3
3
3
3
3
3
3
3
3
3
3
3
3
3
3
3
3
3
3
3
3
3
3
3
3
3
3
3
3
3
3
3
3
3
3
3
3
3
3
3
3
3
3
3
3
3
3
3
3
3
3
3
3
3
3
3
3
3
3
3
3
3
3
3
3
3
3
3
3
3
3
3
3
3
3
3
3
3
3
3
3
3
3
3
3
3
3
3

POINT_DATA 101
SCALARS HEAD double 1
LOOKUP_TABLE default
1.000000000000e+01
1.000000000000e+01
1.000000000000e+01
1.000000000000e+01
1.000000000000e+01
1.000000000000e+01
1.000000000000e+01
1.000000000000e+01
1.000000000000e+01
1.000000000000e+01
1.000000000000e+01
1.000000000000e+01
1.000000000000e+01
1.000000000000e+01
1.000000000000e+01
1.000000000000e+01
1.000000000000e+01
1.000000000000e+01
1.000000000000e+01
1.000000000000e+01
1.000000000000e+01
1.000000000000e+01
1.000000000000e+01
1.000000000000e+01
1.000000000000e+01
1.000000000000e+01
1.000000000000e+01
1.000000000000e+01
1.000000000000e+01
1.000000000000e+01
1.000000000000e+01
1.000000000000e+01
1.000000000000e+01
1.000000000000e+01
1.000000000000e+01
1.000000000000e+01
1.000000000000e+01
1.000000000000e+01
1.000000000000e+01
1.000000000000e+01
1.000000000000e+01
1.000000000000e+01
1.000000000000e+01
1.000000000000e+01
1.000000000000e+01
1.000000000000e+01
1.000000000000e+01
1.000000000000e+01
1.000000000000e+01
1.000000000000e+01
1.000000000000e+01
1.000000000000e+01
1.000000000000e+01
1.000000000000e+01
1.000000000000e+01
1.000000000000e+01
1.000000000000e+01
1.000000000000e+01
1.000000000000e+01
1.000000000000e+01
1.000000000000e+01
1.000000000000e+01
1.000000000000e+01
1.000000000000e+01
1.000000000000e+01
1.000000000000e+01
1.000000000000e+01
1.000000000000e+01
1.000000000000e+01
1.000000000000e+01
1.000000000000e+01
1.000000000000e+01
1.000000000000e+01
1.000000000000e+01
1.000000000000e+01
1.000000000000e+01
1.000000000000e+01
1.000000000000e+01
1.000000000000e+01
1.000000000000e+01
1.000000000000e+01
1.000000000000e+01
1.000000000000e+01
1.000000000000e+01
1.000000000000e+01
1.000000000000e+01
1.000000000000e+01
1.000000000000e+01
1.000000000000e+01
1.000000000000e+01
1.000000000000e+01
1.000000000000e+01
1.000000000000e+01
1.000000000000e+01
1.000000000000e+01
1.000000000000e+01
1.000000000000e+01
1.000000000000e+01
1.000000000000e+01
1.000000000000e+01
1.000000000000e+01
SCALARS 1-Ael double 1
LOOKUP_TABLE default
1.273328640886e+00
1.276794105852e+00
1.271158051468e+00
1.265634623631e+00
1.260222157638e+00
1.254918947055e+00
1.249723259685e+00
1.244633381687e+00
1.239647558966e+00
1.234763981767e+00
1.229980884015e+00
1.225296478956e+00
1.220708985516e+00
1.216216627722e+00
1.211817617629e+00
1.207510165680e+00
1.203292519893e+00
1.199162950105e+00
1.195119705756e+00
1.191161087676e+00
1.187285383998e+00
1.183490943788e+00
1.179776116474e+00
1.176139250114e+00
1.172578762070e+00
1.169093027926e+00
1.165680499560e+00
1.162339651245e+00
1.159068988178e+00
1.155867044474e+00
1.152732334402e+00
1.149663466623e+00
1.146658997388e+00
1.143717512475e+00
1.140837684238e+00
1.138018205736e+00
1.135257793040e+00
1.132555147180e+00
1.129909002874e+00
1.127318145787e+00
1.124781379315e+00
1.122297133016e+00
1.119865497659e+00
1.117483715124e+00
1.115151845918e+00
1.112868943441e+00
1.110633022305e+00
1.108443506550e+00
1.106298981315e+00
1.104199286100e+00
1.102142952762e+00
1.100129530711e+00
1.098157287558e+00
1.096225759031e+00
1.094333621066e+00
1.092481118306e+00
1.090666367723e+00
1.088888881526e+00
1.087147896559e+00
1.085442545242e+00
1.083772103713e+00
1.082135789619e+00
1.080532883368e+00
1.078962677929e+00
1.077424487277e+00
1.075917625879e+00
1.074441396502e+00
1.072995116682e+00
1.071578155848e+00
1.070189911815e+00
1.068829758472e+00
1.067497104751e+00
1.066191370727e+00
1.064911984207e+00
1.063658382386e+00
1.062430008388e+00
1.061226334774e+00
1.060046828458e+00
1.058890990255e+00
1.057758326261e+00
1.056648323921e+00
1.055560509076e+00
1.054494444486e+00
1.053449662514e+00
1.052425703792e+00
1.051422137373e+00
1.050438533499e+00
1.049474476438e+00
1.048529563277e+00
1.047603390255e+00
1.046695565700e+00
1.045805714130e+00
1.044933456886e+00
1.044078428677e+00
1.043240277521e+00
1.042418648672e+00
1.041613203669e+00
1.040823610061e+00
1.040049541257e+00
1.039290679108e+00
1.037650104350e+00
SCALARS 2-Bel double 1
LOOKUP_TABLE default
7.266713591141e-01
7.232058920909e-01
7.288419435377e-01
7.343653685992e-01
7.397778319774e-01
7.450810400992e-01
7.502767251614e-01
7.553666009988e-01
7.603524217043e-01
7.652359970273e-01
7.700190930385e-01
7.747034964897e-01
7.792909884486e-01
7.837833448853e-01
7.881823537404e-01
7.924898045667e-01
7.967074493406e-01
8.008370182226e-01
8.048802617680e-01
8.088388791431e-01
8.127145822088e-01
8.165090218979e-01
8.202238487777e-01
8.238607147848e-01
8.274212025549e-01
8.309069364996e-01
8.343194647371e-01
8.376603129915e-01
8.409309760618e-01
8.441329198297e-01
8.472676300230e-01
8.503364979772e-01
8.533409674378e-01
8.562824526248e-01
8.591622811804e-01
8.619817600423e-01
8.647421731385e-01
8.674448194336e-01
8.700909642089e-01
8.726818217970e-01
8.752185887982e-01
8.777028356529e-01
8.801344715893e-01
8.825162547256e-01
8.848481245521e-01
8.871310276671e-01
8.893669494577e-01
8.915564658799e-01
8.937009917940e-01
8.958006876984e-01
8.978570217349e-01
8.998704444902e-01
9.018426883530e-01
9.037742175936e-01
9.056663562750e-01
9.075188597516e-01
9.093336110517e-01
9.111110979637e-01
9.128520836433e-01
9.145574356690e-01
9.162278779025e-01
9.178641926951e-01
9.194670996383e-01
9.210373057623e-01
9.225754970906e-01
9.240823591555e-01
9.255585891903e-01
9.270048696574e-01
9.284218311281e-01
9.298100757860e-01
9.311702297424e-01
9.325028840638e-01
9.338086186760e-01
9.350880057703e-01
9.363416081526e-01
9.375699826974e-01
9.387736568440e-01
9.399531636787e-01
9.411090023864e-01
9.422416668697e-01
9.433516696845e-01
9.444394849900e-01
9.455055500248e-01
9.465503324270e-01
9.475742915643e-01
9.485778583831e-01
9.495614626429e-01
9.505255200745e-01
9.514704335917e-01
9.523966069554e-01
9.533044318371e-01
9.541942837206e-01
9.550665412637e-01
9.559215697574e-01
9.567597211860e-01
9.575813502925e-01
9.583867955412e-01
9.591763893811e-01
9.599504584046e-01
9.607093207615e-01
9.623498956497e-01
SCALARS 3-H double 1
LOOKUP_TABLE default
1.994509163545e-04
1.995316514421e-04
1.995316580193e-04
1.994501489463e-04
1.995317009863e-04
1.994501428501e-04
1.995314760738e-04
1.994501274425e-04
1.995314392219e-04
1.995316311198e-04
1.994501454293e-04
1.994501565521e-04
1.994501655206e-04
1.995316018836e-04
1.995316767911e-04
1.994501643577e-04
1.995316848792e-04
1.995316852838e-04
1.994501714785e-04
1.995316337227e-04
1.994501684699e-04
1.995316637052e-04
1.994501649884e-04
1.994501691626e-04
1.994501874701e-04
1.995316194386e-04
1.994501951358e-04
1.995315828457e-04
1.995314446921e-04
1.995314736580e-04
1.994501623910e-04
1.994501771142e-04
1.995316580529e-04
1.995316632259e-04
1.994502015934e-04
1.995316672289e-04
1.995316649437e-04
1.994501727181e-04
1.995316474568e-04
1.994501951128e-04
1.995315790545e-04
1.994501857402e-04
1.994501877753e-04
1.995315153809e-04
1.995314988195e-04
1.995315917166e-04
1.995315939605e-04
1.995315329155e-04
1.995315848308e-04
1.994501567936e-04
1.994501703807e-04
1.994501846465e-04
1.995316102367e-04
1.995316108099e-04
1.995315370914e-04
1.995315690811e-04
1.994501616917e-04
1.995316075635e-04
1.995316239223e-04
1.994501680291e-04
1.994501566606e-04
1.995315649068e-04
1.995315276688e-04
1.995314759538e-04
1.995316260157e-04
1.995315696980e-04
1.995316122014e-04
1.995315318674e-04
1.995315115496e-04
1.995316213535e-04
1.994501809635e-04
1.994501607132e-04
1.994501554360e-04
1.994501617008e-04
1.994501807364e-04
1.995315688382e-04
1.995315957443e-04
1.994501705091e-04
1.994501736200e-04
1.994501733459e-04
1.995315562263e-04
1.994501742580e-04
1.995315475592e-04
1.995315527677e-04
1.995314815448e-04
1.995315945384e-04
1.995315932627e-04
1.995316196671e-04
1.995315276403e-04
1.995316067786e-04
1.995315472429e-04
1.995316193945e-04
1.994501850286e-04
1.995315182553e-04
1.994501904666e-04
1.995315808883e-04
1.995315512242e-04
1.994501577787e-04
1.995315499321e-04
1.994501549754e-04
1.994499886698e-04
SCALARS 4-Inrt double 1
LOOKUP_TABLE default
0.000000000000e+00
0.000000000000e+00
0.000000000000e+00
0.000000000000e+00
0.000000000000e+00
0.000000000000e+00
0.000000000000e+00
0.000000000000e+00
0.000000000000e+00
0.000000000000e+00
0.000000000000e+00
0.000000000000e+00
0.000000000000e+00
0.000000000000e+00
0.000000000000e+00
0.000000000000e+00
0.000000000000e+00
0.000000000000e+00
0.000000000000e+00
0.000000000000e+00
0.000000000000e+00
0.000000000000e+00
0.000000000000e+00
0.000000000000e+00
0.000000000000e+00
0.000000000000e+00
0.000000000000e+00
0.000000000000e+00
0.000000000000e+00
0.000000000000e+00
0.000000000000e+00
0.000000000000e+00
0.000000000000e+00
0.000000000000e+00
0.000000000000e+00
0.000000000000e+00
0.000000000000e+00
0.000000000000e+00
0.000000000000e+00
0.000000000000e+00
0.000000000000e+00
0.000000000000e+00
0.000000000000e+00
0.000000000000e+00
0.000000000000e+00
0.000000000000e+00
0.000000000000e+00
0.000000000000e+00
0.000000000000e+00
0.000000000000e+00
0.000000000000e+00
0.000000000000e+00
0.000000000000e+00
0.000000000000e+00
0.000000000000e+00
0.000000000000e+00
0.000000000000e+00
0.000000000000e+00
0.000000000000e+00
0.000000000000e+00
0.000000000000e+00
0.000000000000e+00
0.000000000000e+00
0.000000000000e+00
0.000000000000e+00
0.000000000000e+00
0.000000000000e+00
0.000000000000e+00
0.000000000000e+00
0.000000000000e+00
0.000000000000e+00
0.000000000000e+00
0.000000000000e+00
0.000000000000e+00
0.000000000000e+00
0.000000000000e+00
0.000000000000e+00
0.000000000000e+00
0.000000000000e+00
0.000000000000e+00
0.000000000000e+00
0.000000000000e+00
0.000000000000e+00
0.000000000000e+00
0.000000000000e+00
0.000000000000e+00
0.000000000000e+00
0.000000000000e+00
0.000000000000e+00
0.000000000000e+00
0.000000000000e+00
0.000000000000e+00
0.000000000000e+00
0.000000000000e+00
0.000000000000e+00
0.000000000000e+00
0.000000000000e+00
0.000000000000e+00
0.000000000000e+00
0.000000000000e+00
0.000000000000e+00
SCALARS 5-O double 1
LOOKUP_TABLE default
1.009972554693e-02
9.905580940910e-03
9.628380570688e-03
9.366590309621e-03
9.120015565493e-03
8.888155723897e-03
8.670819350377e-03
8.467476204142e-03
8.277908614640e-03
8.101603044906e-03
7.938161862993e-03
7.787263213627e-03
7.648459164999e-03
7.521381090531e-03
7.405536942804e-03
7.300516356428e-03
7.206033770058e-03
7.121561949216e-03
7.046698910128e-03
6.981170249660e-03
6.924420932540e-03
6.876228539696e-03
6.836050732804e-03
6.803637207324e-03
6.778582364956e-03
6.760569305715e-03
6.749126586559e-03
6.744075914744e-03
6.744962318019e-03
6.751502244985e-03
6.763339311512e-03
6.780247591020e-03
6.801928898949e-03
6.828012407958e-03
6.858216862373e-03
6.892391980542e-03
6.930151454911e-03
6.971240266937e-03
7.015533860414e-03
7.062630685100e-03
7.112463038145e-03
7.164645706225e-03
7.219086053296e-03
7.275577744541e-03
7.333840706060e-03
7.393723478290e-03
7.455042584734e-03
7.517621162566e-03
7.581289443339e-03
7.645844735570e-03
7.711212914282e-03
7.777203187583e-03
7.843713325186e-03
7.910526534395e-03
7.977554298501e-03
8.044671389678e-03
8.111719988294e-03
8.178710307817e-03
8.245413302608e-03
8.311729440828e-03
8.377645652469e-03
8.443072372319e-03
8.507843407576e-03
8.571919457529e-03
8.635225586050e-03
8.697692175549e-03
8.759255553437e-03
8.819856618291e-03
8.879439366714e-03
8.937951471618e-03
8.995305682389e-03
9.051540255307e-03
9.106575281066e-03
9.160375867238e-03
9.212910955662e-03
9.264194100234e-03
9.314119692320e-03
9.362667620982e-03
9.409901540133e-03
9.455766531724e-03
9.500293321611e-03
9.543351706132e-03
9.585098219588e-03
9.625408779287e-03
9.664324835882e-03
9.701849033011e-03
9.737986446901e-03
9.772744510734e-03
9.806132505699e-03
9.838162408495e-03
9.868847685965e-03
9.898203523928e-03
9.926206490097e-03
9.952997343275e-03
9.978433427545e-03
1.000269922830e-02
1.002569540282e-02
1.004744603646e-02
1.006809822894e-02
1.008751540589e-02
1.009972507400e-02
SCALARS 6-Zz double 1
LOOKUP_TABLE default
0.000000000000e+00
0.000000000000e+00
0.000000000000e+00
0.000000000000e+00
0.000000000000e+00
0.000000000000e+00
0.000000000000e+00
0.000000000000e+00
0.000000000000e+00
0.000000000000e+00
0.000000000000e+00
0.000000000000e+00
0.000000000000e+00
0.000000000000e+00
0.000000000000e+00
0.000000000000e+00
0.000000000000e+00
0.000000000000e+00
0.000000000000e+00
0.000000000000e+00
0.000000000000e+00
0.000000000000e+00
0.000000000000e+00
0.000000000000e+00
0.000000000000e+00
0.000000000000e+00
0.000000000000e+00
0.000000000000e+00
0.000000000000e+00
0.000000000000e+00
0.000000000000e+00
0.000000000000e+00
0.000000000000e+00
0.000000000000e+00
0.000000000000e+00
0.000000000000e+00
0.000000000000e+00
0.000000000000e+00
0.000000000000e+00
0.000000000000e+00
0.000000000000e+00
0.000000000000e+00
0.000000000000e+00
0.000000000000e+00
0.000000000000e+00
0.000000000000e+00
0.000000000000e+00
0.000000000000e+00
0.000000000000e+00
0.000000000000e+00
0.000000000000e+00
0.000000000000e+00
0.000000000000e+00
0.000000000000e+00
0.000000000000e+00
0.000000000000e+00
0.000000000000e+00
0.000000000000e+00
0.000000000000e+00
0.000000000000e+00
0.000000000000e+00
0.000000000000e+00
0.000000000000e+00
0.000000000000e+00
0.000000000000e+00
0.000000000000e+00
0.000000000000e+00
0.000000000000e+00
0.000000000000e+00
0.000000000000e+00
0.000000000000e+00
0.000000000000e+00
0.000000000000e+00
0.000000000000e+00
0.000000000000e+00
0.000000000000e+00
0.000000000000e+00
0.000000000000e+00
0.000000000000e+00
0.000000000000e+00
0.000000000000e+00
0.000000000000e+00
0.000000000000e+00
0.000000000000e+00
0.000000000000e+00
0.000000000000e+00
0.000000000000e+00
0.000000000000e+00
0.000000000000e+00
0.000000000000e+00
0.000000000000e+00
0.000000000000e+00
0.000000000000e+00
0.000000000000e+00
0.000000000000e+00
0.000000000000e+00
0.000000000000e+00
0.000000000000e+00
0.000000000000e+00
0.000000000000e+00
0.000000000000e+00
SCALARS Ael double 1
LOOKUP_TABLE default
 1.273328666760e-03
 1.157191862948e-03
 1.223885548468e-03
 1.294663435750e-03
 1.369778564661e-03
 1.449501060496e-03
 1.534117082267e-03
 1.623933696296e-03
 1.719271122321e-03
 1.820475039759e-03
 1.927912042733e-03
 2.041969023338e-03
 2.163061459944e-03
 2.291626069523e-03
 2.428130917961e-03
 2.573069516151e-03
 2.726973614126e-03
 2.890399372543e-03
 3.063943905399e-03
 3.248241477963e-03
 3.443960572926e-03
 3.651825257225e-03
 3.872584027583e-03
 4.107054851762e-03
 4.356091116872e-03
 4.620603258879e-03
 4.901570761658e-03
 5.200014947188e-03
 5.517044592414e-03
 5.853812619295e-03
 6.211563730042e-03
 6.591620821739e-03
 6.995362298400e-03
 7.424298341055e-03
 7.879999835741e-03
 8.364158024805e-03
 8.878551793589e-03
 9.425078333221e-03
 1.000576451680e-02
 1.062275250293e-02
 1.127833138351e-02
 1.197492097731e-02
 1.271511067067e-02
 1.350162179125e-02
 1.433739334625e-02
 1.522551588651e-02
 1.616926941846e-02
 1.717218234790e-02
 1.823795254774e-02
 1.937054679881e-02
 2.057417191446e-02
 2.185332321708e-02
 2.321272649639e-02
 2.465744335188e-02
 2.619284722797e-02
 2.782468009136e-02
 2.955897374345e-02
 3.140222534560e-02
 3.336128015758e-02
 3.544342126252e-02
 3.765642559418e-02
 4.000853955177e-02
 4.250855060918e-02
 4.516577825339e-02
 4.799014461991e-02
 5.099216438454e-02
 5.418302494109e-02
 5.757464822094e-02
 6.117974991019e-02
 6.501177303076e-02
 6.908498710895e-02
 7.341470713594e-02
 7.801700923356e-02
 8.290920461772e-02
 8.810945732137e-02
 9.363733406984e-02
 9.951342606490e-02
 1.057597554509e-01
 1.123997213692e-01
 1.194581284034e-01
 1.269613280530e-01
 1.349375789510e-01
 1.434166801472e-01
 1.524302871717e-01
 1.620122422094e-01
 1.721984303692e-01
 1.830269760990e-01
 1.945385161543e-01
 2.067761427925e-01
 2.197857082401e-01
 2.336160063709e-01
 2.483189084292e-01
 2.639494236712e-01
 2.805663248799e-01
 2.982317961228e-01
 3.170121394653e-01
 3.369778275174e-01
 3.582037174089e-01
 3.807694754349e-01
 4.047597537578e-01
 4.413452104611e-01
SCALARS Bel double 1
LOOKUP_TABLE default
 7.266713738803e-04
 9.621689619072e-04
 1.022251436141e-03
 1.086131496958e-03
 1.154051986778e-03
 1.226269997017e-03
 1.303059902434e-03
 1.384710595667e-03
 1.471535482710e-03
 1.563862560132e-03
 1.662041494405e-03
 1.766446933437e-03
 1.877473083662e-03
 1.995544104473e-03
 2.121107237577e-03
 2.254642155639e-03
 2.396651830973e-03
 2.547680258725e-03
 2.708300055431e-03
 2.879120664501e-03
 3.060795972259e-03
 3.254007919721e-03
 3.459502950856e-03
 3.678052600262e-03
 3.910493530177e-03
 4.157712265127e-03
 4.420639960062e-03
 4.700286805694e-03
 4.997704062707e-03
 5.314035507270e-03
 5.650478446222e-03
 6.008306500790e-03
 6.388902075028e-03
 6.793690485508e-03
 7.224222091527e-03
 7.682124402098e-03
 8.169147291994e-03
 8.687145633251e-03
 9.238082054910e-03
 9.824056370629e-03
 1.044728991308e-02
 1.111015873537e-02
 1.181517284027e-02
 1.256503302126e-02
 1.336256555543e-02
 1.421081006368e-02
 1.511300469881e-02
 1.607255176446e-02
 1.709312276507e-02
 1.817858673587e-02
 1.933306864832e-02
 2.056093233241e-02
 2.186687190560e-02
 2.325584193135e-02
 2.473311913253e-02
 2.630428585278e-02
 2.797535142399e-02
 2.975262202354e-02
 3.164286619066e-02
 3.365327641297e-02
 3.579146765815e-02
 3.806555977342e-02
 4.048416756263e-02
 4.305647544039e-02
 4.579223654251e-02
 4.870185699576e-02
 5.179639459563e-02
 5.508758083830e-02
 5.858785085985e-02
 6.231050466015e-02
 6.626970873943e-02
 7.048038432623e-02
 7.495860568634e-02
 7.972124735135e-02
 8.478649525813e-02
 9.017343389919e-02
 9.590257023558e-02
 1.019955821550e-01
 1.084755371503e-01
 1.153670390377e-01
 1.226962727338e-01
 1.304908420859e-01
 1.387803471727e-01
 1.475962921585e-01
 1.569719932143e-01
 1.669429754187e-01
 1.775470455424e-01
 1.888243053244e-01
 2.008175126442e-01
 2.135721006940e-01
 2.271363404296e-01
 2.415615707658e-01
 2.569025270214e-01
 2.732171291255e-01
 2.905672737760e-01
 3.090185954959e-01
 3.286409114725e-01
 3.495085364607e-01
 3.717004205021e-01
 3.953005701931e-01
 4.093176644537e-01
SCALARS H double 1
LOOKUP_TABLE default
 1.106904901085e+02
 3.899501396022e+01
 4.115492440038e+01
 4.344784133206e+01
 4.588171938783e+01
 4.846551313901e+01
 5.120834913975e+01
 5.412123491764e+01
 5.721313954323e+01
 6.049599246357e+01
 6.398214427665e+01
 6.768342342053e+01
 7.161447446495e+01
 7.578847361491e+01
 8.022137262696e+01
 8.492807748760e+01
 8.992824279474e+01
 9.523795614036e+01
 1.008775347969e+02
 1.068684056343e+02
 1.132300714026e+02
 1.199911894983e+02
 1.271696837769e+02
 1.347980820175e+02
 1.429011632473e+02
 1.515072140229e+02
 1.606539761195e+02
 1.703685701327e+02
 1.806953502887e+02
 1.916639539686e+02
 2.033190940442e+02
 2.157084285518e+02
 2.288621036352e+02
 2.428454437594e+02
 2.577021679375e+02
 2.734951826265e+02
 2.902765252359e+02
 3.081061954786e+02
 3.270563917025e+02
 3.471934688850e+02
 3.685981784115e+02
 3.913458316839e+02
 4.155263651065e+02
 4.412162950683e+02
 4.685298511733e+02
 4.975605751149e+02
 5.284066388383e+02
 5.612075768276e+02
 5.960628899259e+02
 6.331071649456e+02
 6.724806271627e+02
 7.143515198040e+02
 7.588498612486e+02
 8.061455317196e+02
 8.564178869864e+02
 9.098785157422e+02
 9.666865251388e+02
 1.027099101946e+03
 1.091317585545e+03
 1.159562776619e+03
 1.232111152738e+03
 1.309230500145e+03
 1.391232496983e+03
 1.478418316517e+03
 1.571127603088e+03
 1.669673015383e+03
 1.774397510695e+03
 1.885706154400e+03
 2.004092912166e+03
 2.129969143264e+03
 2.263733897000e+03
 2.406040991106e+03
 2.557252969862e+03
 2.718115361992e+03
 2.889016778097e+03
 3.070805107967e+03
 3.264015167987e+03
 3.469443487751e+03
 3.687914239456e+03
 3.920167745456e+03
 4.166946160281e+03
 4.429508108051e+03
 4.708717942201e+03
 5.005431463018e+03
 5.320935713318e+03
 5.656404825206e+03
 6.013023424853e+03
 6.392273459919e+03
 6.795483157359e+03
 7.224141280209e+03
 7.679930171801e+03
 8.164625326216e+03
 8.679773025728e+03
 9.227711549839e+03
 9.810178788109e+03
 1.042948443558e+04
 1.108803474836e+04
 1.178820067509e+04
 1.253270424156e+04
 1.332430064534e+04
 4.708014431404e+04
SCALARS Inrt double 1
LOOKUP_TABLE default
 9.989999999797e-01
 9.989403195872e-01
 9.988769315068e-01
 9.988096025321e-01
 9.987380847221e-01
 9.986621144684e-01
 9.985814115041e-01
 9.984956778498e-01
 9.984045966925e-01
 9.983078311943e-01
 9.982050232248e-01
 9.980957920141e-01
 9.979797327198e-01
 9.978564149036e-01
 9.977253809119e-01
 9.975861441527e-01
 9.974381872650e-01
 9.972809601707e-01
 9.971138780048e-01
 9.969363189128e-01
 9.967476217101e-01
 9.965470833929e-01
 9.963339564908e-01
 9.961074462526e-01
 9.958667076536e-01
 9.956108422137e-01
 9.953388946132e-01
 9.950498490960e-01
 9.947426256433e-01
 9.944160759058e-01
 9.940689788792e-01
 9.937000363042e-01
 9.933078677769e-01
 9.928910055484e-01
 9.924478889961e-01
 9.919768587443e-01
 9.914761504129e-01
 9.909438879703e-01
 9.903780766655e-01
 9.897765955124e-01
 9.891371892986e-01
 9.884574600883e-01
 9.877348581868e-01
 9.869666725337e-01
 9.861500204867e-01
 9.852818369600e-01
 9.843588628740e-01
 9.833776328739e-01
 9.823344622712e-01
 9.812254331577e-01
 9.800463796411e-01
 9.787928721452e-01
 9.774602007164e-01
 9.760433572733e-01
 9.745370167321e-01
 9.729355169377e-01
 9.712328373236e-01
 9.694225762203e-01
 9.674979267283e-01
 9.654516510623e-01
 9.632760532715e-01
 9.609629502328e-01
 9.585036408073e-01
 9.558888730442e-01
 9.531088093078e-01
 9.501529891970e-01
 9.470102901170e-01
 9.436688853540e-01
 9.401161994971e-01
 9.363388610353e-01
 9.323226519553e-01
 9.280524541474e-01
 9.235121924176e-01
 9.186847738924e-01
 9.135520235868e-01
 9.080946158918e-01
 9.022920017262e-01
 8.961223310738e-01
 8.895623706177e-01
 8.825874161578e-01
 8.751711994862e-01
 8.672857893628e-01
 8.589014862233e-01
 8.499867102205e-01
 8.405078821765e-01
 8.304292969976e-01
 8.197129890745e-01
 8.083185891600e-01
 7.962031721855e-01
 7.833210954419e-01
 7.696238265144e-01
 7.550597603232e-01
 7.395740245811e-01
 7.231082729321e-01
 7.056004649933e-01
 6.869846324706e-01
 6.671906304655e-01
 6.461438730355e-01
 6.237650520123e-01
 5.999698380167e-01
 5.746685625425e-01
SCALARS O double 1
LOOKUP_TABLE default
 5.534525505425e+01
 1.949751043459e+01
 2.057746574295e+01
 2.172392430343e+01
 2.294086343285e+01
 2.423276041749e+01
 2.560417853507e+01
 2.706062155017e+01
 2.860657399869e+01
 3.024800060505e+01
 3.199107666916e+01
 3.384171641093e+01
 3.580724211635e+01
 3.789424188895e+01
 4.011069160823e+01
 4.246404426866e+01
 4.496412717071e+01
 4.761898411172e+01
 5.043877372957e+01
 5.343420946092e+01
 5.661504268256e+01
 5.999560209501e+01
 6.358484962765e+01
 6.739904917274e+01
 7.145059024603e+01
 7.575361612842e+01
 8.032699771055e+01
 8.518429529291e+01
 9.034768599222e+01
 9.583198850199e+01
 1.016595592620e+02
 1.078542272946e+02
 1.144310656749e+02
 1.214227366409e+02
 1.288510997034e+02
 1.367476080965e+02
 1.451382805301e+02
 1.540531168661e+02
 1.635282162852e+02
 1.735967562824e+02
 1.842991125580e+02
 1.956729408199e+02
 2.077632092790e+02
 2.206081761372e+02
 2.342649562070e+02
 2.487803203442e+02
 2.642033545313e+02
 2.806038260228e+02
 2.980314852506e+02
 3.165536256337e+02