# vtk DataFile Version 3.0
Unstructured Grid from OpenGeoSys
ASCII
DATASET UNSTRUCTURED_GRID
FIELD TimesAndCycles 2
TIME 1 1 double
3.000000000000e+03
CYLCE 1 1 long
30
POINTS 101 double
0.000000000000e+00 0.000000000000e+00 0.000000000000e+00
2.000000000000e-05 0.000000000000e+00 0.000000000000e+00
4.000000000000e-05 0.000000000000e+00 0.000000000000e+00
6.000000000000e-05 0.000000000000e+00 0.000000000000e+00
8.000000000000e-05 0.000000000000e+00 0.000000000000e+00
1.000000000000e-04 0.000000000000e+00 0.000000000000e+00
1.200000000000e-04 0.000000000000e+00 0.000000000000e+00
1.400000000000e-04 0.000000000000e+00 0.000000000000e+00
1.600000000000e-04 0.000000000000e+00 0.000000000000e+00
1.800000000000e-04 0.000000000000e+00 0.000000000000e+00
2.000000000000e-04 0.000000000000e+00 0.000000000000e+00
2.200000000000e-04 0.000000000000e+00 0.000000000000e+00
2.400000000000e-04 0.000000000000e+00 0.000000000000e+00
2.600000000000e-04 0.000000000000e+00 0.000000000000e+00
2.800000000000e-04 0.000000000000e+00 0.000000000000e+00
3.000000000000e-04 0.000000000000e+00 0.000000000000e+00
3.200000000000e-04 0.000000000000e+00 0.000000000000e+00
3.400000000000e-04 0.000000000000e+00 0.000000000000e+00
3.600000000000e-04 0.000000000000e+00 0.000000000000e+00
3.800000000000e-04 0.000000000000e+00 0.000000000000e+00
4.000000000000e-04 0.000000000000e+00 0.000000000000e+00
4.200000000000e-04 0.000000000000e+00 0.000000000000e+00
4.400000000000e-04 0.000000000000e+00 0.000000000000e+00
4.600000000000e-04 0.000000000000e+00 0.000000000000e+00
4.800000000000e-04 0.000000000000e+00 0.000000000000e+00
5.000000000000e-04 0.000000000000e+00 0.000000000000e+00
5.200000000000e-04 0.000000000000e+00 0.000000000000e+00
5.400000000000e-04 0.000000000000e+00 0.000000000000e+00
5.600000000000e-04 0.000000000000e+00 0.000000000000e+00
5.800000000000e-04 0.000000000000e+00 0.000000000000e+00
6.000000000000e-04 0.000000000000e+00 0.000000000000e+00
6.200000000000e-04 0.000000000000e+00 0.000000000000e+00
6.400000000000e-04 0.000000000000e+00 0.000000000000e+00
6.600000000000e-04 0.000000000000e+00 0.000000000000e+00
6.800000000000e-04 0.000000000000e+00 0.000000000000e+00
7.000000000000e-04 0.000000000000e+00 0.000000000000e+00
7.200000000000e-04 0.000000000000e+00 0.000000000000e+00
7.400000000000e-04 0.000000000000e+00 0.000000000000e+00
7.600000000000e-04 0.000000000000e+00 0.000000000000e+00
7.800000000000e-04 0.000000000000e+00 0.000000000000e+00
8.000000000000e-04 0.000000000000e+00 0.000000000000e+00
8.200000000000e-04 0.000000000000e+00 0.000000000000e+00
8.400000000000e-04 0.000000000000e+00 0.000000000000e+00
8.600000000000e-04 0.000000000000e+00 0.000000000000e+00
8.800000000000e-04 0.000000000000e+00 0.000000000000e+00
9.000000000000e-04 0.000000000000e+00 0.000000000000e+00
9.200000000000e-04 0.000000000000e+00 0.000000000000e+00
9.400000000000e-04 0.000000000000e+00 0.000000000000e+00
9.600000000000e-04 0.000000000000e+00 0.000000000000e+00
9.800000000000e-04 0.000000000000e+00 0.000000000000e+00
1.000000000000e-03 0.000000000000e+00 0.000000000000e+00
1.020000000000e-03 0.000000000000e+00 0.000000000000e+00
1.040000000000e-03 0.000000000000e+00 0.000000000000e+00
1.060000000000e-03 0.000000000000e+00 0.000000000000e+00
1.080000000000e-03 0.000000000000e+00 0.000000000000e+00
1.100000000000e-03 0.000000000000e+00 0.000000000000e+00
1.120000000000e-03 0.000000000000e+00 0.000000000000e+00
1.140000000000e-03 0.000000000000e+00 0.000000000000e+00
1.160000000000e-03 0.000000000000e+00 0.000000000000e+00
1.180000000000e-03 0.000000000000e+00 0.000000000000e+00
1.200000000000e-03 0.000000000000e+00 0.000000000000e+00
1.220000000000e-03 0.000000000000e+00 0.000000000000e+00
1.240000000000e-03 0.000000000000e+00 0.000000000000e+00
1.260000000000e-03 0.000000000000e+00 0.000000000000e+00
1.280000000000e-03 0.000000000000e+00 0.000000000000e+00
1.300000000000e-03 0.000000000000e+00 0.000000000000e+00
1.320000000000e-03 0.000000000000e+00 0.000000000000e+00
1.340000000000e-03 0.000000000000e+00 0.000000000000e+00
1.360000000000e-03 0.000000000000e+00 0.000000000000e+00
1.380000000000e-03 0.000000000000e+00 0.000000000000e+00
1.400000000000e-03 0.000000000000e+00 0.000000000000e+00
1.420000000000e-03 0.000000000000e+00 0.000000000000e+00
1.440000000000e-03 0.000000000000e+00 0.000000000000e+00
1.460000000000e-03 0.000000000000e+00 0.000000000000e+00
1.480000000000e-03 0.000000000000e+00 0.000000000000e+00
1.500000000000e-03 0.000000000000e+00 0.000000000000e+00
1.520000000000e-03 0.000000000000e+00 0.000000000000e+00
1.540000000000e-03 0.000000000000e+00 0.000000000000e+00
1.560000000000e-03 0.000000000000e+00 0.000000000000e+00
1.580000000000e-03 0.000000000000e+00 0.000000000000e+00
1.600000000000e-03 0.000000000000e+00 0.000000000000e+00
1.620000000000e-03 0.000000000000e+00 0.000000000000e+00
1.640000000000e-03 0.000000000000e+00 0.000000000000e+00
1.660000000000e-03 0.000000000000e+00 0.000000000000e+00
1.680000000000e-03 0.000000000000e+00 0.000000000000e+00
1.700000000000e-03 0.000000000000e+00 0.000000000000e+00
1.720000000000e-03 0.000000000000e+00 0.000000000000e+00
1.740000000000e-03 0.000000000000e+00 0.000000000000e+00
1.760000000000e-03 0.000000000000e+00 0.000000000000e+00
1.780000000000e-03 0.000000000000e+00 0.000000000000e+00
1.800000000000e-03 0.000000000000e+00 0.000000000000e+00
1.820000000000e-03 0.000000000000e+00 0.000000000000e+00
1.840000000000e-03 0.000000000000e+00 0.000000000000e+00
1.860000000000e-03 0.000000000000e+00 0.000000000000e+00
1.880000000000e-03 0.000000000000e+00 0.000000000000e+00
1.900000000000e-03 0.000000000000e+00 0.000000000000e+00
1.920000000000e-03 0.000000000000e+00 0.000000000000e+00
1.940000000000e-03 0.000000000000e+00 0.000000000000e+00
1.960000000000e-03 0.000000000000e+00 0.000000000000e+00
1.980000000000e-03 0.000000000000e+00 0.000000000000e+00
2.000000000000e-03 0.000000000000e+00 0.000000000000e+00
CELLS 100 300
2 0 1
2 1 2
2 2 3
2 3 4
2 4 5
2 5 6
2 6 7
2 7 8
2 8 9
2 9 10
2 10 11
2 11 12
2 12 13
2 13 14
2 14 15
2 15 16
2 16 17
2 17 18
2 18 19
2 19 20
2 20 21
2 21 22
2 22 23
2 23 24
2 24 25
2 25 26
2 26 27
2 27 28
2 28 29
2 29 30
2 30 31
2 31 32
2 32 33
2 33 34
2 34 35
2 35 36
2 36 37
2 37 38
2 38 39
2 39 40
2 40 41
2 41 42
2 42 43
2 43 44
2 44 45
2 45 46
2 46 47
2 47 48
2 48 49
2 49 50
2 50 51
2 51 52
2 52 53
2 53 54
2 54 55
2 55 56
2 56 57
2 57 58
2 58 59
2 59 60
2 60 61
2 61 62
2 62 63
2 63 64
2 64 65
2 65 66
2 66 67
2 67 68
2 68 69
2 69 70
2 70 71
2 71 72
2 72 73
2 73 74
2 74 75
2 75 76
2 76 77
2 77 78
2 78 79
2 79 80
2 80 81
2 81 82
2 82 83
2 83 84
2 84 85
2 85 86
2 86 87
2 87 88
2 88 89
2 89 90
2 90 91
2 91 92
2 92 93
2 93 94
2 94 95
2 95 96
2 96 97
2 97 98
2 98 99
2 99 100

CELL_TYPES 100
3
3
3
3
3
3
3
3
3
3
3
3
3
3
3
3
3
3
3
3
3
3
3
3
3
3
3
3
3
3
3
3
3
3
3
3
3
3
3
3
3
3
3
3
3
3
3
3
3
3
3
3
3
3
3
3
3
3
3
3
3
3
3
3
3
3
3
3
3
3
3
3
3
3
3
3
3
3
3
3
3
3
3
3
3
3
3
3
3
3
3
3
3
3
3
3
3
3
3
3

POINT_DATA 101
SCALARS HEAD double 1
LOOKUP_TABLE default
1.000000000000e+01
1.000000000000e+01
1.000000000000e+01
1.000000000000e+01
1.000000000000e+01
1.000000000000e+01
1.000000000000e+01
1.000000000000e+01
1.000000000000e+01
1.000000000000e+01
1.000000000000e+01
1.000000000000e+01
1.000000000000e+01
1.000000000000e+01
1.000000000000e+01
1.000000000000e+01
1.000000000000e+01
1.000000000000e+01
1.000000000000e+01
1.000000000000e+01
1.000000000000e+01
1.000000000000e+01
1.000000000000e+01
1.000000000000e+01
1.000000000000e+01
1.000000000000e+01
1.000000000000e+01
1.000000000000e+01
1.000000000000e+01
1.000000000000e+01
1.000000000000e+01
1.000000000000e+01
1.000000000000e+01
1.000000000000e+01
1.000000000000e+01
1.000000000000e+01
1.000000000000e+01
1.000000000000e+01
1.000000000000e+01
1.000000000000e+01
1.000000000000e+01
1.000000000000e+01
1.000000000000e+01
1.000000000000e+01
1.000000000000e+01
1.000000000000e+01
1.000000000000e+01
1.000000000000e+01
1.000000000000e+01
1.000000000000e+01
1.000000000000e+01
1.000000000000e+01
1.000000000000e+01
1.000000000000e+01
1.000000000000e+01
1.000000000000e+01
1.000000000000e+01
1.000000000000e+01
1.000000000000e+01
1.000000000000e+01
1.000000000000e+01
1.000000000000e+01
1.000000000000e+01
1.000000000000e+01
1.000000000000e+01
1.000000000000e+01
1.000000000000e+01
1.000000000000e+01
1.000000000000e+01
1.000000000000e+01
1.000000000000e+01
1.000000000000e+01
1.000000000000e+01
1.000000000000e+01
1.000000000000e+01
1.000000000000e+01
1.000000000000e+01
1.000000000000e+01
1.000000000000e+01
1.000000000000e+01
1.000000000000e+01
1.000000000000e+01
1.000000000000e+01
1.000000000000e+01
1.000000000000e+01
1.000000000000e+01
1.000000000000e+01
1.000000000000e+01
1.000000000000e+01
1.000000000000e+01
1.000000000000e+01
1.000000000000e+01
1.000000000000e+01
1.000000000000e+01
1.000000000000e+01
1.000000000000e+01
1.000000000000e+01
1.000000000000e+01
1.000000000000e+01
1.000000000000e+01
1.000000000000e+01
SCALARS 1-Ael double 1
LOOKUP_TABLE default
1.249053550930e+00
1.252018913819e+00
1.246802831731e+00
1.241697009337e+00
1.236699359583e+00
1.231807792776e+00
1.227020229644e+00
1.222334640212e+00
1.217748988209e+00
1.213261215333e+00
1.208869331102e+00
1.204571352151e+00
1.200365324957e+00
1.196249323962e+00
1.192221434549e+00
1.188279761341e+00
1.184422462770e+00
1.180647735469e+00
1.176953774894e+00
1.173338835031e+00
1.169801182963e+00
1.166338600566e+00
1.162951086044e+00
1.159635387910e+00
1.156390404570e+00
1.153213975469e+00
1.150105807488e+00
1.147063728776e+00
1.144086359476e+00
1.141172254410e+00
1.138320038693e+00
1.135528292259e+00
1.132795663645e+00
1.130121363280e+00
1.127503091425e+00
1.124939641010e+00
1.122430786713e+00
1.119974775695e+00
1.117570459300e+00
1.115216695676e+00
1.112912786217e+00
1.110656390240e+00
1.108448141226e+00
1.106285677719e+00
1.104168064971e+00
1.102095105951e+00
1.100065382523e+00
1.098077980939e+00
1.096131946083e+00
1.094226738080e+00
1.092360429484e+00
1.090533531015e+00
1.088743840023e+00
1.086991866528e+00
1.085275801443e+00
1.083595198612e+00
1.081949310461e+00
1.080337049718e+00
1.078758592688e+00
1.077212053905e+00
1.075697849203e+00
1.074214434152e+00
1.072761447776e+00
1.071337972683e+00
1.069944168726e+00
1.068578337553e+00
1.067240917741e+00
1.065930500204e+00
1.064646516508e+00
1.063389141959e+00
1.062157107503e+00
1.060949860354e+00
1.059767529319e+00
1.058608755878e+00
1.057473846212e+00
1.056361668967e+00
1.055271935837e+00
1.054204184163e+00
1.053157939543e+00
1.052132751189e+00
1.051128150445e+00
1.050143703563e+00
1.049179010333e+00
1.048233643176e+00
1.047307182136e+00
1.046399233125e+00
1.045509403282e+00
1.044637312595e+00
1.043782592809e+00
1.042944875072e+00
1.042123801641e+00
1.041319029586e+00
1.040530213288e+00
1.039757019394e+00
1.038999126767e+00
1.038256211956e+00
1.037527966409e+00
1.036814087194e+00
1.036114276847e+00
1.035428245712e+00
1.033915152278e+00
SCALARS 2-Bel double 1
LOOKUP_TABLE default
7.509464490697e-01
7.479810837187e-01
7.531971625573e-01
7.583029818865e-01
7.633006287521e-01
7.681921928442e-01
7.729797534299e-01
7.776653404781e-01
7.822509902533e-01
7.867387610550e-01
7.911306433591e-01
7.954286205258e-01
7.996346460723e-01
8.037506455528e-01
8.077785335786e-01
8.117202055213e-01
8.155775029452e-01
8.193522292122e-01
8.230461888631e-01
8.266611279052e-01
8.301987792532e-01
8.336613610252e-01
8.370488750147e-01
8.403645727030e-01
8.436095556815e-01
8.467859845008e-01
8.498941522770e-01
8.529362308552e-01
8.559136000915e-01
8.588277051597e-01
8.616799209405e-01
8.644716674988e-01
8.672042962922e-01
8.698785968893e-01
8.724968690266e-01
8.750603197715e-01
8.775691744425e-01
8.800251858768e-01
8.824295027265e-01
8.847832668427e-01
8.870871768276e-01
8.893435733628e-01
8.915518229637e-01
8.937142870854e-01
8.958319004740e-01
8.979048601571e-01
8.999345842693e-01
9.019219865564e-01
9.038680221330e-01
9.057732308710e-01
9.076395402174e-01
9.094664394478e-01
9.112561312112e-01
9.130081054863e-01
9.147241713587e-01
9.164047749834e-01
9.180506639310e-01
9.196629254743e-01
9.212413833047e-01
9.227879228899e-01
9.243021283916e-01
9.257855442406e-01
9.272385314114e-01
9.286620072941e-01
9.300558120347e-01
9.314216439860e-01
9.327590645674e-01
9.340694828664e-01
9.353534673145e-01
9.366108426050e-01
9.378428777921e-01
9.390501256605e-01
9.402324574027e-01
9.413912315369e-01
9.425261418840e-01
9.436383197952e-01
9.447280535770e-01
9.457958058874e-01
9.468420511282e-01
9.478672400871e-01
9.488718414205e-01
9.498562888754e-01
9.508209826604e-01
9.517663503570e-01
9.526928119187e-01
9.536007614338e-01
9.544905917641e-01
9.553626829213e-01
9.562174031595e-01
9.570551213308e-01
9.578761951801e-01
9.586809676351e-01
9.594697843165e-01
9.602429785764e-01
9.610008715522e-01
9.617437866957e-01
9.624720325580e-01
9.631859120731e-01
9.638857227038e-01
9.645717541067e-01
9.660848477217e-01
SCALARS 3-H double 1
LOOKUP_TABLE default
1.994509163545e-04
1.995316043462e-04
1.995316408556e-04
1.995316991784e-04
1.995315317731e-04
1.995316952728e-04
1.994501440629e-04
1.994501490233e-04
1.994501488032e-04
1.994501539300e-04
1.995315341747e-04
1.994501637117e-04
1.995316825048e-04
1.994501661306e-04
1.994501755938e-04
1.995316052179e-04
1.994501888506e-04
1.995316793540e-04
1.995316120652e-04
1.994501626838e-04
1.994501695403e-04
1.995315079080e-04
1.995315065538e-04
1.994501702909e-04
1.996026194819e-04
1.995314427236e-04
1.995314554042e-04
1.993935459525e-04
1.995315802313e-04
1.995314602541e-04
1.995314625868e-04
1.995314281769e-04
1.995315562964e-04
1.995316486693e-04
1.995314702727e-04
1.994501891732e-04
1.995314551429e-04
1.994711152972e-04
1.995316433002e-04
1.994501907739e-04
1.994501994373e-04
1.995314721537e-04
1.994502049071e-04
1.995314630905e-04
1.994287656271e-04
1.996995580359e-04
1.995314569556e-04
1.994501763314e-04
1.994502035677e-04
1.994501682245e-04
1.995315609723e-04
1.996729852537e-04
1.993961816961e-04
1.996656116261e-04
1.995314669191e-04
1.995314488983e-04
1.995316334298e-04
1.995315480569e-04
1.994501778410e-04
1.995315363010e-04
1.995314847420e-04
1.996421428402e-04
1.994501489677e-04
1.995315079670e-04
1.995314922775e-04
1.995314218278e-04
1.996313107477e-04
1.994501679728e-04
1.995314715279e-04
1.995315791745e-04
1.995315074237e-04
1.994501795861e-04
1.996211332005e-04
1.995315685391e-04
1.994501692316e-04
1.995315497013e-04
1.994501739621e-04
1.994501808660e-04
1.994501805635e-04
1.995315958868e-04
1.995315186981e-04
1.994501598308e-04
1.994501561494e-04
1.994501608848e-04
1.995315048838e-04
1.995315999197e-04
1.994501644755e-04
1.994501672708e-04
1.995315144375e-04
1.995314788566e-04
1.995314531085e-04
1.995315929049e-04
1.994501688945e-04
1.995314568616e-04
1.994501770282e-04
1.995315130176e-04
1.994501520316e-04
1.994501833465e-04
1.994501615944e-04
1.994501425460e-04
1.994499886698e-04
SCALARS 4-Inrt double 1
LOOKUP_TABLE default
0.000000000000e+00
0.000000000000e+00
0.000000000000e+00
0.000000000000e+00
0.000000000000e+00
0.000000000000e+00
0.000000000000e+00
0.000000000000e+00
0.000000000000e+00
0.000000000000e+00
0.000000000000e+00
0.000000000000e+00
0.000000000000e+00
0.000000000000e+00
0.000000000000e+00
0.000000000000e+00
0.000000000000e+00
0.000000000000e+00
0.000000000000e+00
0.000000000000e+00
0.000000000000e+00
0.000000000000e+00
0.000000000000e+00
0.000000000000e+00
0.000000000000e+00
0.000000000000e+00
0.000000000000e+00
0.000000000000e+00
0.000000000000e+00
0.000000000000e+00
0.000000000000e+00
0.000000000000e+00
0.000000000000e+00
0.000000000000e+00
0.000000000000e+00
0.000000000000e+00
0.000000000000e+00
0.000000000000e+00
0.000000000000e+00
0.000000000000e+00
0.000000000000e+00
0.000000000000e+00
0.000000000000e+00
0.000000000000e+00
0.000000000000e+00
0.000000000000e+00
0.000000000000e+00
0.000000000000e+00
0.000000000000e+00
0.000000000000e+00
0.000000000000e+00
0.000000000000e+00
0.000000000000e+00
0.000000000000e+00
0.000000000000e+00
0.000000000000e+00
0.000000000000e+00
0.000000000000e+00
0.000000000000e+00
0.000000000000e+00
0.000000000000e+00
0.000000000000e+00
0.000000000000e+00
0.000000000000e+00
0.000000000000e+00
0.000000000000e+00
0.000000000000e+00
0.000000000000e+00
0.000000000000e+00
0.000000000000e+00
0.000000000000e+00
0.000000000000e+00
0.000000000000e+00
0.000000000000e+00
0.000000000000e+00
0.000000000000e+00
0.000000000000e+00
0.000000000000e+00
0.000000000000e+00
0.000000000000e+00
0.000000000000e+00
0.000000000000e+00
0.000000000000e+00
0.000000000000e+00
0.000000000000e+00
0.000000000000e+00
0.000000000000e+00
0.000000000000e+00
0.000000000000e+00
0.000000000000e+00
0.000000000000e+00
0.000000000000e+00
0.000000000000e+00
0.000000000000e+00
0.000000000000e+00
0.000000000000e+00
0.000000000000e+00
0.000000000000e+00
0.000000000000e+00
0.000000000000e+00
0.000000000000e+00
SCALARS 5-O double 1
LOOKUP_TABLE default
1.009972554693e-02
9.792093584168e-03
9.386117986328e-03
9.003132527351e-03
8.642494303341e-03
8.303551111781e-03
7.985604005071e-03
7.688076317325e-03
7.410267442997e-03
7.151517469973e-03
6.911214296694e-03
6.688588364636e-03
6.483163111216e-03
6.294145180794e-03
6.121036151957e-03
5.963225986000e-03
5.819995881132e-03
5.690924817002e-03
5.575318751350e-03
5.472620680105e-03
5.382367977898e-03
5.304031330243e-03
5.237014247354e-03
5.180815155271e-03
5.135104858656e-03
5.099179907206e-03
5.072729671982e-03
5.055203756504e-03
5.046376617373e-03
5.045621957767e-03
5.052602234968e-03
5.066923297262e-03
5.088203153589e-03
5.116071890115e-03
5.150170322660e-03
5.190110187883e-03
5.235676052225e-03
5.286389438327e-03
5.342065064065e-03
5.402264529815e-03
5.466801653516e-03
5.535387685571e-03
5.607620476993e-03
5.683391691228e-03
5.762265550987e-03
5.844263786003e-03
5.928732665630e-03
6.015695432951e-03
6.104916025275e-03
6.196128679556e-03
6.289154541126e-03
6.383770337249e-03
6.479530012664e-03
6.576717350684e-03
6.674665218633e-03
6.773454312974e-03
6.872837016150e-03
6.972638694432e-03
7.072648713602e-03
7.172827585260e-03
7.272896381519e-03
7.372799895666e-03
7.472186163139e-03
7.571202173706e-03
7.669536146456e-03
7.767100412664e-03
7.863823561227e-03
7.959400338944e-03
8.053990074499e-03
8.147314389378e-03
8.239315104389e-03
8.329855019584e-03
8.419014016142e-03
8.506451966342e-03
8.592225903539e-03
8.676341926661e-03
8.758570568564e-03
8.838973635947e-03
8.917454130894e-03
8.994002266303e-03
9.068493483327e-03
9.140887985230e-03
9.211230805220e-03
9.279452641197e-03
9.345570684320e-03
9.409483895489e-03
9.471177694317e-03
9.530723447804e-03
9.588115397876e-03
9.643271450460e-03
9.696235638461e-03
9.747015132343e-03
9.795580655239e-03
9.842069805186e-03
9.886338369708e-03
9.928571660372e-03
9.968632645466e-03
1.000667211153e-02
1.004268120809e-02
1.007669449328e-02
1.009972507400e-02
SCALARS 6-Zz double 1
LOOKUP_TABLE default
0.000000000000e+00
0.000000000000e+00
0.000000000000e+00
0.000000000000e+00
0.000000000000e+00
0.000000000000e+00
0.000000000000e+00
0.000000000000e+00
0.000000000000e+00
0.000000000000e+00
0.000000000000e+00
0.000000000000e+00
0.000000000000e+00
0.000000000000e+00
0.000000000000e+00
0.000000000000e+00
0.000000000000e+00
0.000000000000e+00
0.000000000000e+00
0.000000000000e+00
0.000000000000e+00
0.000000000000e+00
0.000000000000e+00
0.000000000000e+00
-2.614511517203e-18
0.000000000000e+00
0.000000000000e+00
0.000000000000e+00
0.000000000000e+00
0.000000000000e+00
0.000000000000e+00
0.000000000000e+00
0.000000000000e+00
0.000000000000e+00
0.000000000000e+00
0.000000000000e+00
0.000000000000e+00
0.000000000000e+00
0.000000000000e+00
0.000000000000e+00
0.000000000000e+00
0.000000000000e+00
0.000000000000e+00
0.000000000000e+00
-8.826889291606e-18
1.576814971917e-18
0.000000000000e+00
0.000000000000e+00
0.000000000000e+00
0.000000000000e+00
0.000000000000e+00
0.000000000000e+00
0.000000000000e+00
0.000000000000e+00
0.000000000000e+00
0.000000000000e+00
0.000000000000e+00
0.000000000000e+00
0.000000000000e+00
0.000000000000e+00
0.000000000000e+00
0.000000000000e+00
0.000000000000e+00
0.000000000000e+00
0.000000000000e+00
0.000000000000e+00
-6.775681839518e-18
0.000000000000e+00
0.000000000000e+00
0.000000000000e+00
0.000000000000e+00
0.000000000000e+00
0.000000000000e+00
0.000000000000e+00
0.000000000000e+00
0.000000000000e+00
0.000000000000e+00
0.000000000000e+00
0.000000000000e+00
0.000000000000e+00
0.000000000000e+00
0.000000000000e+00
0.000000000000e+00
0.000000000000e+00
0.000000000000e+00
0.000000000000e+00
0.000000000000e+00
0.000000000000e+00
0.000000000000e+00
0.000000000000e+00
0.000000000000e+00
0.000000000000e+00
0.000000000000e+00
0.000000000000e+00
0.000000000000e+00
0.000000000000e+00
0.000000000000e+00
0.000000000000e+00
0.000000000000e+00
0.000000000000e+00
0.000000000000e+00
SCALARS Ael double 1
LOOKUP_TABLE default
 1.249053576311e-03
 1.175606426641e-03
 1.243046828979e-03
 1.314602262804e-03
 1.390526951890e-03
 1.471092480610e-03
 1.556586351313e-03
 1.647317599263e-03
 1.743607311196e-03
 1.845803097559e-03
 1.954273417297e-03
 2.069406568204e-03
 2.191620334566e-03
 2.321352875777e-03
 2.459074529885e-03
 2.605280381501e-03
 2.760505266544e-03
 2.925306755587e-03
 3.100284626010e-03
 3.286075840900e-03
 3.483350547591e-03
 3.692836563809e-03
 3.915284978371e-03
 4.151516558666e-03
 4.402385416831e-03
 4.668806201154e-03
 4.951766654606e-03
 5.252286518194e-03
 5.571475631382e-03
 5.910499233699e-03
 6.270598992096e-03
 6.653101484222e-03
 7.059396609986e-03
 7.490987106598e-03
 7.949460660582e-03
 8.436503756945e-03
 8.953906625745e-03
 9.503568164079e-03
 1.008752227382e-02
 1.070791567363e-02
 1.136704649160e-02
 1.206733393471e-02
 1.281138533783e-02
 1.360190875145e-02
 1.444187278158e-02
 1.533435951794e-02
 1.628267011876e-02
 1.729032773609e-02
 1.836104130623e-02
 1.949879769522e-02
 2.070779912250e-02
 2.199254859882e-02
 2.335780447785e-02
 2.480860491861e-02
 2.635036194779e-02
 2.798881395958e-02
 2.973000418001e-02
 3.158044991461e-02
 3.354700822452e-02
 3.563696203522e-02
 3.785813865082e-02
 4.021874581953e-02
 4.272763209152e-02
 4.539410315355e-02
 4.822811601108e-02
 5.124018260297e-02
 5.444153378291e-02
 5.784408823696e-02
 6.146059117120e-02
 6.530450087226e-02
 6.939012053393e-02
 7.373277912553e-02
 7.834856380347e-02
 8.325483412304e-02
 8.846975735370e-02
 9.401293943175e-02
 9.990498640316e-02
 1.061679584064e-01
 1.128252896582e-01
 1.199018062633e-01
 1.274238774671e-01
 1.354198325667e-01
 1.439194918114e-01
 1.529545267355e-01
 1.625588361220e-01
 1.727683436386e-01
 1.836212076581e-01
 1.951581223851e-01
 2.074222157221e-01
 2.204593846715e-01
 2.343184790940e-01
 2.490514271846e-01
 2.647132670814e-01
 2.813628631434e-01
 2.990624296546e-01
 3.178783400376e-01
 3.378811368744e-01
 3.591457349458e-01
 3.817518769638e-01
 4.057842837727e-01
 4.397566179274e-01
SCALARS Bel double 1
LOOKUP_TABLE default
 7.509464643292e-04
 9.437543978064e-04
 1.003090154711e-03
 1.066192668442e-03
 1.133303597516e-03
 1.204678574264e-03
 1.280590630109e-03
 1.361326688746e-03
 1.447199289167e-03
 1.538534496911e-03
 1.635680113627e-03
 1.739009381521e-03
 1.848914201110e-03
 1.965817289359e-03
 2.090163615817e-03
 2.222431279426e-03
 2.363120166612e-03
 2.512772862604e-03
 2.671959320553e-03
 2.841286286047e-03
 3.021405980766e-03
 3.212996594934e-03
 3.416801980427e-03
 3.633590872210e-03
 3.864199207494e-03
 4.109509298481e-03
 4.370444041021e-03
 4.648015206798e-03
 4.943272993976e-03
 5.257348861147e-03
 5.591443150414e-03
 5.946825802436e-03
 6.324867725368e-03
 6.727001679602e-03
 7.154761223950e-03
 7.609778624759e-03
 8.093792412087e-03
 8.608655752001e-03
 9.156324244776e-03
 9.738893143989e-03
 1.035857474614e-02
 1.101774571612e-02
 1.171889810817e-02
 1.246474599297e-02
 1.325808604874e-02
 1.410196635756e-02
 1.499960392040e-02
 1.595440629468e-02
 1.697003392143e-02
 1.805033575068e-02
 1.919944134782e-02
 2.042170685446e-02
 2.172179382414e-02
 2.310468026078e-02
 2.457560430501e-02
 2.614015187297e-02
 2.780432087192e-02
 2.957439733511e-02
 3.145713800040e-02
 3.345973551307e-02
 3.558975447045e-02
 3.785535337080e-02
 4.026508594168e-02
 4.282815039795e-02
 4.555426500549e-02
 4.845383862802e-02
 5.153788560117e-02
 5.481814066648e-02
 5.830700944004e-02
 6.201777665705e-02
 6.596457515027e-02
 7.016231217012e-02
 7.462705094784e-02
 7.937561767567e-02
 8.442619505399e-02
 8.979782836436e-02
 9.551100972368e-02
 1.015873790255e-01
 1.080499686875e-01
 1.149233610045e-01
 1.222337231475e-01
 1.300085882997e-01
 1.382775353401e-01
 1.470720524292e-01
 1.564253991395e-01
 1.663730619912e-01
 1.769528138300e-01
 1.882046989457e-01
 2.001714395731e-01
 2.128984241280e-01
 2.264338675797e-01
 2.408290518925e-01
 2.561386835029e-01
 2.724205907641e-01
 2.897366401579e-01
 3.081523948497e-01
 3.277376020550e-01
 3.485665188779e-01
 3.707180189428e-01
 3.942760401644e-01
 4.109062569873e-01
SCALARS H double 1
LOOKUP_TABLE default
 1.106904901085e+02
 5.091644470045e+01
 5.381000115602e+01
 5.688233219135e+01
 6.014418155976e+01
 6.360762251764e+01
 6.728497482634e+01
 7.119105049894e+01
 7.533800399413e+01
 7.974190455292e+01
 8.441940131830e+01
 8.938647776645e+01
 9.466285761415e+01
 1.002663498267e+02
 1.062184564454e+02
 1.125393205498e+02
 1.192554006194e+02
 1.263884553010e+02
 1.339658774391e+02
 1.420165625985e+02
 1.505668763996e+02
 1.596554191895e+02
 1.693064006826e+02
 1.795637072938e+02
 1.904595463334e+02
 2.020339314976e+02
 2.143384093112e+02
 2.274084941942e+02
 2.412999129975e+02
 2.560613943061e+02
 2.717469101924e+02
 2.884194616154e+02
 3.061295538697e+02
 3.249501503225e+02
 3.449550138618e+02
 3.662192397726e+02
 3.888174553133e+02
 4.128296232173e+02
 4.383531185249e+02
 4.654775341378e+02
 4.943116845188e+02
 5.249557693681e+02
 5.575380609730e+02
 5.921451076438e+02
 6.289543630773e+02
 6.680740722012e+02
 7.096520561849e+02
 7.538582023318e+02
 8.008330021372e+02
 8.507720084668e+02
 9.038548282851e+02
 9.602918309625e+02
 1.020300665393e+03
 1.084056699630e+03
 1.151843576491e+03
 1.223929661722e+03
 1.300528343809e+03
 1.381995702991e+03
 1.468593598473e+03
 1.560625759015e+03
 1.658491805822e+03
 1.762494310838e+03
 1.873110108258e+03
 1.990710716550e+03
 2.115757810303e+03
 2.248681977403e+03
 2.389959962503e+03
 2.540126191266e+03
 2.699847465855e+03
 2.869648193160e+03
 3.050135944554e+03
 3.242146021409e+03
 3.446152476608e+03
 3.663209694257e+03
 3.893804548358e+03
 4.139095528898e+03
 4.399804152885e+03
 4.677005450785e+03
 4.971812071916e+03
 5.285223636653e+03
 5.618242318894e+03
 5.972566731941e+03
 6.349364027752e+03
 6.749789901828e+03
 7.175581659463e+03
 7.628324476709e+03
 8.109617790473e+03
 8.621462136438e+03
 9.165650857062e+03
 9.744193930152e+03
 1.035936256390e+04
 1.101355375302e+04
 1.170885542970e+04
 1.244842402610e+04
 1.323460620475e+04
 1.407052013956e+04
 1.495941443146e+04
 1.590449019642e+04
 1.690942235893e+04
 1.797793075843e+04
 4.708014431404e+04
SCALARS Inrt double 1
LOOKUP_TABLE default
 9.989999999797e-01
 9.989403195872e-01
 9.988769315068e-01
 9.988096025321e-01
 9.987380847221e-01
 9.986621144684e-01
 9.985814115041e-01
 9.984956778498e-01
 9.984045966925e-01
 9.983078311943e-01
 9.982050232248e-01
 9.980957920141e-01
 9.979797327198e-01
 9.978564149036e-01
 9.977253809119e-01
 9.975861441527e-01
 9.974381872650e-01
 9.972809601707e-01
 9.971138780048e-01
 9.969363189128e-01
 9.967476217101e-01
 9.965470833929e-01
 9.963339564908e-01
 9.961074462526e-01
 9.958667076536e-01
 9.956108422137e-01
 9.953388946132e-01
 9.950498490960e-01
 9.947426256433e-01
 9.944160759058e-01
 9.940689788792e-01
 9.937000363042e-01
 9.933078677769e-01
 9.928910055484e-01
 9.924478889961e-01
 9.919768587443e-01
 9.914761504129e-01
 9.909438879703e-01
 9.903780766655e-01
 9.897765955124e-01
 9.891371892986e-01
 9.884574600883e-01
 9.877348581868e-01
 9.869666725337e-01
 9.861500204867e-01
 9.852818369600e-01
 9.843588628740e-01
 9.833776328739e-01
 9.823344622712e-01
 9.812254331577e-01
 9.800463796411e-01
 9.787928721452e-01
 9.774602007164e-01
 9.760433572733e-01
 9.745370167321e-01
 9.729355169377e-01
 9.712328373236e-01
 9.694225762203e-01
 9.674979267283e-01
 9.654516510623e-01
 9.632760532715e-01
 9.609629502328e-01
 9.585036408073e-01
 9.558888730442e-01
 9.531088093078e-01
 9.501529891970e-01
 9.470102901170e-01
 9.436688853540e-01
 9.401161994971e-01
 9.363388610353e-01
 9.323226519553e-01
 9.280524541474e-01
 9.235121924176e-01
 9.186847738924e-01
 9.135520235868e-01
 9.080946158918e-01
 9.022920017262e-01
 8.961223310738e-01
 8.895623706177e-01
 8.825874161578e-01
 8.751711994862e-01
 8.672857893628e-01
 8.589014862233e-01
 8.499867102205e-01
 8.405078821765e-01
 8.304292969976e-01
 8.197129890745e-01
 8.083185891600e-01
 7.962031721855e-01
 7.833210954419e-01
 7.696238265144e-01
 7.550597603232e-01
 7.395740245811e-01
 7.231082729321e-01
 7.056004649933e-01
 6.869846324706e-01
 6.671906304655e-01
 6.461438730355e-01
 6.237650520123e-01
 5.999698380167e-01
 5.746685625425e-01
SCALARS O double 1
LOOKUP_TABLE default
 5.534525505425e+01
 2.545822680859e+01
 2.690500509239e+01
 2.844117067099e+01
 3.007209542161e+01
 3.180381597307e+01
 3.364249220673e+01
 3.559553012995e+01
 3.766900697276e+01
 3.987095735660e+01
 4.220970585398e+01
 4.469324420397e+01
 4.733143426618e+01
 5.013318052442e+01
 5.310923400074e+01
 5.626966623631e+01
 5.962770647258e+01
 6.319423403457e+01
 6.698294534647e+01
 7.100828819272e+01
 7.528344538551e+01
 7.982771710119e+01
 8.465320819897e+01
 8.978186188951e+01
 9.522978183071e+01
 1.010169748738e+02
 1.071692142851e+02
 1.137042572779e+02
 1.206499672821e+02
 1.280307085944e+02
 1.358734672555e+02
 1.442097437503e+02
 1.530647907310e+02
 1.624750898874e+02
 1.724775226699e+02
 1.831096367278e+02
 1.944087456973e+02
 2.064148309527e+02
 2.191765800229e+02
 2.327387893672e+02
 2.471558662272e+02
 2.624779104628e+02
 2.787690582293e+02
 2.960725836918e+02
 3.144772137138e+02
 3.340370707711e+02
 3.548260654628e+02
 3.769291414567e+02
 4.004165445155e+02
 4.253860510906e+02