# vtk DataFile Version 3.0
Unstructured Grid from OpenGeoSys
ASCII
DATASET UNSTRUCTURED_GRID
FIELD TimesAndCycles 2
TIME 1 1 double
1.000000000000e+03
CYLCE 1 1 long
10
POINTS 101 double
0.000000000000e+00 0.000000000000e+00 0.000000000000e+00
2.000000000000e-05 0.000000000000e+00 0.000000000000e+00
4.000000000000e-05 0.000000000000e+00 0.000000000000e+00
6.000000000000e-05 0.000000000000e+00 0.000000000000e+00
8.000000000000e-05 0.000000000000e+00 0.000000000000e+00
1.000000000000e-04 0.000000000000e+00 0.000000000000e+00
1.200000000000e-04 0.000000000000e+00 0.000000000000e+00
1.400000000000e-04 0.000000000000e+00 0.000000000000e+00
1.600000000000e-04 0.000000000000e+00 0.000000000000e+00
1.800000000000e-04 0.000000000000e+00 0.000000000000e+00
2.000000000000e-04 0.000000000000e+00 0.000000000000e+00
2.200000000000e-04 0.000000000000e+00 0.000000000000e+00
2.400000000000e-04 0.000000000000e+00 0.000000000000e+00
2.600000000000e-04 0.000000000000e+00 0.000000000000e+00
2.800000000000e-04 0.000000000000e+00 0.000000000000e+00
3.000000000000e-04 0.000000000000e+00 0.000000000000e+00
3.200000000000e-04 0.000000000000e+00 0.000000000000e+00
3.400000000000e-04 0.000000000000e+00 0.000000000000e+00
3.600000000000e-04 0.000000000000e+00 0.000000000000e+00
3.800000000000e-04 0.000000000000e+00 0.000000000000e+00
4.000000000000e-04 0.000000000000e+00 0.000000000000e+00
4.200000000000e-04 0.000000000000e+00 0.000000000000e+00
4.400000000000e-04 0.000000000000e+00 0.000000000000e+00
4.600000000000e-04 0.000000000000e+00 0.000000000000e+00
4.800000000000e-04 0.000000000000e+00 0.000000000000e+00
5.000000000000e-04 0.000000000000e+00 0.000000000000e+00
5.200000000000e-04 0.000000000000e+00 0.000000000000e+00
5.400000000000e-04 0.000000000000e+00 0.000000000000e+00
5.600000000000e-04 0.000000000000e+00 0.000000000000e+00
5.800000000000e-04 0.000000000000e+00 0.000000000000e+00
6.000000000000e-04 0.000000000000e+00 0.000000000000e+00
6.200000000000e-04 0.000000000000e+00 0.000000000000e+00
6.400000000000e-04 0.000000000000e+00 0.000000000000e+00
6.600000000000e-04 0.000000000000e+00 0.000000000000e+00
6.800000000000e-04 0.000000000000e+00 0.000000000000e+00
7.000000000000e-04 0.000000000000e+00 0.000000000000e+00
7.200000000000e-04 0.000000000000e+00 0.000000000000e+00
7.400000000000e-04 0.000000000000e+00 0.000000000000e+00
7.600000000000e-04 0.000000000000e+00 0.000000000000e+00
7.800000000000e-04 0.000000000000e+00 0.000000000000e+00
8.000000000000e-04 0.000000000000e+00 0.000000000000e+00
8.200000000000e-04 0.000000000000e+00 0.000000000000e+00
8.400000000000e-04 0.000000000000e+00 0.000000000000e+00
8.600000000000e-04 0.000000000000e+00 0.000000000000e+00
8.800000000000e-04 0.000000000000e+00 0.000000000000e+00
9.000000000000e-04 0.000000000000e+00 0.000000000000e+00
9.200000000000e-04 0.000000000000e+00 0.000000000000e+00
9.400000000000e-04 0.000000000000e+00 0.000000000000e+00
9.600000000000e-04 0.000000000000e+00 0.000000000000e+00
9.800000000000e-04 0.000000000000e+00 0.000000000000e+00
1.000000000000e-03 0.000000000000e+00 0.000000000000e+00
1.020000000000e-03 0.000000000000e+00 0.000000000000e+00
1.040000000000e-03 0.000000000000e+00 0.000000000000e+00
1.060000000000e-03 0.000000000000e+00 0.000000000000e+00
1.080000000000e-03 0.000000000000e+00 0.000000000000e+00
1.100000000000e-03 0.000000000000e+00 0.000000000000e+00
1.120000000000e-03 0.000000000000e+00 0.000000000000e+00
1.140000000000e-03 0.000000000000e+00 0.000000000000e+00
1.160000000000e-03 0.000000000000e+00 0.000000000000e+00
1.180000000000e-03 0.000000000000e+00 0.000000000000e+00
1.200000000000e-03 0.000000000000e+00 0.000000000000e+00
1.220000000000e-03 0.000000000000e+00 0.000000000000e+00
1.240000000000e-03 0.000000000000e+00 0.000000000000e+00
1.260000000000e-03 0.000000000000e+00 0.000000000000e+00
1.280000000000e-03 0.000000000000e+00 0.000000000000e+00
1.300000000000e-03 0.000000000000e+00 0.000000000000e+00
1.320000000000e-03 0.000000000000e+00 0.000000000000e+00
1.340000000000e-03 0.000000000000e+00 0.000000000000e+00
1.360000000000e-03 0.000000000000e+00 0.000000000000e+00
1.380000000000e-03 0.000000000000e+00 0.000000000000e+00
1.400000000000e-03 0.000000000000e+00 0.000000000000e+00
1.420000000000e-03 0.000000000000e+00 0.000000000000e+00
1.440000000000e-03 0.000000000000e+00 0.000000000000e+00
1.460000000000e-03 0.000000000000e+00 0.000000000000e+00
1.480000000000e-03 0.000000000000e+00 0.000000000000e+00
1.500000000000e-03 0.000000000000e+00 0.000000000000e+00
1.520000000000e-03 0.000000000000e+00 0.000000000000e+00
1.540000000000e-03 0.000000000000e+00 0.000000000000e+00
1.560000000000e-03 0.000000000000e+00 0.000000000000e+00
1.580000000000e-03 0.000000000000e+00 0.000000000000e+00
1.600000000000e-03 0.000000000000e+00 0.000000000000e+00
1.620000000000e-03 0.000000000000e+00 0.000000000000e+00
1.640000000000e-03 0.000000000000e+00 0.000000000000e+00
1.660000000000e-03 0.000000000000e+00 0.000000000000e+00
1.680000000000e-03 0.000000000000e+00 0.000000000000e+00
1.700000000000e-03 0.000000000000e+00 0.000000000000e+00
1.720000000000e-03 0.000000000000e+00 0.000000000000e+00
1.740000000000e-03 0.000000000000e+00 0.000000000000e+00
1.760000000000e-03 0.000000000000e+00 0.000000000000e+00
1.780000000000e-03 0.000000000000e+00 0.000000000000e+00
1.800000000000e-03 0.000000000000e+00 0.000000000000e+00
1.820000000000e-03 0.000000000000e+00 0.000000000000e+00
1.840000000000e-03 0.000000000000e+00 0.000000000000e+00
1.860000000000e-03 0.000000000000e+00 0.000000000000e+00
1.880000000000e-03 0.000000000000e+00 0.000000000000e+00
1.900000000000e-03 0.000000000000e+00 0.000000000000e+00
1.920000000000e-03 0.000000000000e+00 0.000000000000e+00
1.940000000000e-03 0.000000000000e+00 0.000000000000e+00
1.960000000000e-03 0.000000000000e+00 0.000000000000e+00
1.980000000000e-03 0.000000000000e+00 0.000000000000e+00
2.000000000000e-03 0.000000000000e+00 0.000000000000e+00
CELLS 100 300
2 0 1
2 1 2
2 2 3
2 3 4
2 4 5
2 5 6
2 6 7
2 7 8
2 8 9
2 9 10
2 10 11
2 11 12
2 12 13
2 13 14
2 14 15
2 15 16
2 16 17
2 17 18
2 18 19
2 19 20
2 20 21
2 21 22
2 22 23
2 23 24
2 24 25
2 25 26
2 26 27
2 27 28
2 28 29
2 29 30
2 30 31
2 31 32
2 32 33
2 33 34
2 34 35
2 35 36
2 36 37
2 37 38
2 38 39
2 39 40
2 40 41
2 41 42
2 42 43
2 43 44
2 44 45
2 45 46
2 46 47
2 47 48
2 48 49
2 49 50
2 50 51
2 51 52
2 52 53
2 53 54
2 54 55
2 55 56
2 56 57
2 57 58
2 58 59
2 59 60
2 60 61
2 61 62
2 62 63
2 63 64
2 64 65
2 65 66
2 66 67
2 67 68
2 68 69
2 69 70
2 70 71
2 71 72
2 72 73
2 73 74
2 74 75
2 75 76
2 76 77
2 77 78
2 78 79
2 79 80
2 80 81
2 81 82
2 82 83
2 83 84
2 84 85
2 85 86
2 86 87
2 87 88
2 88 89
2 89 90
2 90 91
2 91 92
2 92 93
2 93 94
2 94 95
2 95 96
2 96 97
2 97 98
2 98 99
2 99 100

CELL_TYPES 100
3
3
3
3
3
3
3
3
3
3
3
3
3
3
3
3
3
3
3
3
3
3
3
3
3
3
3
3
3
3
3
3
3
3
3
3
3
3
3
3
3
3
3
3
3
3
3
3
3
3
3
3
3
3
3
3
3
3
3
3
3
3
3
3
3
3
3
3
3
3
3
3
3
3
3
3
3
3
3
3
3
3
3
3
3
3
3
3
3
3
3
3
3
3
3
3
3
3
3
3

POINT_DATA 101
SCALARS HEAD double 1
LOOKUP_TABLE default
1.000000000000e+01
1.000000000000e+01
1.000000000000e+01
1.000000000000e+01
1.000000000000e+01
1.000000000000e+01
1.000000000000e+01
1.000000000000e+01
1.000000000000e+01
1.000000000000e+01
1.000000000000e+01
1.000000000000e+01
1.000000000000e+01
1.000000000000e+01
1.000000000000e+01
1.000000000000e+01
1.000000000000e+01
1.000000000000e+01
1.000000000000e+01
1.000000000000e+01
1.000000000000e+01
1.000000000000e+01
1.000000000000e+01
1.000000000000e+01
1.000000000000e+01
1.000000000000e+01
1.000000000000e+01
1.000000000000e+01
1.000000000000e+01
1.000000000000e+01
1.000000000000e+01
1.000000000000e+01
1.000000000000e+01
1.000000000000e+01
1.000000000000e+01
1.000000000000e+01
1.000000000000e+01
1.000000000000e+01
1.000000000000e+01
1.000000000000e+01
1.000000000000e+01
1.000000000000e+01
1.000000000000e+01
1.000000000000e+01
1.000000000000e+01
1.000000000000e+01
1.000000000000e+01
1.000000000000e+01
1.000000000000e+01
1.000000000000e+01
1.000000000000e+01
1.000000000000e+01
1.000000000000e+01
1.000000000000e+01
1.000000000000e+01
1.000000000000e+01
1.000000000000e+01
1.000000000000e+01
1.000000000000e+01
1.000000000000e+01
1.000000000000e+01
1.000000000000e+01
1.000000000000e+01
1.000000000000e+01
1.000000000000e+01
1.000000000000e+01
1.000000000000e+01
1.000000000000e+01
1.000000000000e+01
1.000000000000e+01
1.000000000000e+01
1.000000000000e+01
1.000000000000e+01
1.000000000000e+01
1.000000000000e+01
1.000000000000e+01
1.000000000000e+01
1.000000000000e+01
1.000000000000e+01
1.000000000000e+01
1.000000000000e+01
1.000000000000e+01
1.000000000000e+01
1.000000000000e+01
1.000000000000e+01
1.000000000000e+01
1.000000000000e+01
1.000000000000e+01
1.000000000000e+01
1.000000000000e+01
1.000000000000e+01
1.000000000000e+01
1.000000000000e+01
1.000000000000e+01
1.000000000000e+01
1.000000000000e+01
1.000000000000e+01
1.000000000000e+01
1.000000000000e+01
1.000000000000e+01
1.000000000000e+01
SCALARS 1-Ael double 1
LOOKUP_TABLE default
1.205605438167e+00
1.207446374382e+00
1.203082432721e+00
1.198817835550e+00
1.194650225812e+00
1.190577278563e+00
1.186596708466e+00
1.182706299027e+00
1.178903854267e+00
1.175187182820e+00
1.171554213686e+00
1.168002146135e+00
1.164530833658e+00
1.161135856449e+00
1.157817010681e+00
1.154571789408e+00
1.151398898699e+00
1.148295354807e+00
1.145259378386e+00
1.142290334695e+00
1.139386518935e+00
1.136544727303e+00
1.133765338985e+00
1.131044822726e+00
1.128383643492e+00
1.125778799152e+00
1.123229473506e+00
1.120733720604e+00
1.118291171030e+00
1.115900502653e+00
1.113559127715e+00
1.111267205374e+00
1.109023076989e+00
1.106825631809e+00
1.104674113796e+00
1.102566800708e+00
1.100502621315e+00
1.098481664916e+00
1.096501937980e+00
1.094562545042e+00
1.092663542741e+00
1.090803150070e+00
1.088980484302e+00
1.087195406966e+00
1.085446807870e+00
1.083733927440e+00
1.082056002749e+00
1.080412670009e+00
1.078802282103e+00
1.077225121715e+00
1.075680456132e+00
1.074167087165e+00
1.072684474688e+00
1.071232722983e+00
1.069810499024e+00
1.068417249702e+00
1.067053125438e+00
1.065716606796e+00
1.064407860177e+00
1.063126165464e+00
1.061870943593e+00
1.060641942800e+00
1.059437992447e+00
1.058259501532e+00
1.057105291990e+00
1.055974962024e+00
1.054868414153e+00
1.053784991774e+00
1.052724438403e+00
1.051685730282e+00
1.050669178627e+00
1.049673606600e+00
1.048699296881e+00
1.047745146003e+00
1.046811221549e+00
1.045896924515e+00
1.045002040584e+00
1.044125621084e+00
1.043267954815e+00
1.042427960557e+00
1.041605732522e+00
1.040800858454e+00
1.040012669495e+00
1.039240750526e+00
1.038485034398e+00
1.037745000099e+00
1.037020383649e+00
1.036310584408e+00
1.035615210403e+00
1.034934200737e+00
1.034267043704e+00
1.033613557509e+00
1.032973002172e+00
1.032345559242e+00
1.031730544127e+00
1.031127761085e+00
1.030536910776e+00
1.029957701524e+00
1.029389849713e+00
1.028833081918e+00
1.027516833948e+00
SCALARS 2-Bel double 1
LOOKUP_TABLE default
7.943945618334e-01
7.925536225288e-01
7.969175608955e-01
8.011821549665e-01
8.053497617944e-01
8.094227063165e-01
8.134032738643e-01
8.172936809257e-01
8.210961234736e-01
8.248127928670e-01
8.284457600998e-01
8.319978258947e-01
8.354691367559e-01
8.388641124818e-01
8.421829568920e-01
8.454281769271e-01
8.486010665123e-01
8.517046093871e-01
8.547405848914e-01
8.577096277599e-01
8.606134427874e-01
8.634552337681e-01
8.662346215133e-01
8.689551372713e-01
8.716163160721e-01
8.742211600397e-01
8.767704853719e-01
8.792662380137e-01
8.817087873769e-01
8.840994555889e-01
8.864408304036e-01
8.887327526607e-01
8.909768809974e-01
8.931743261633e-01
8.953258441923e-01
8.974331573255e-01
8.994973367915e-01
9.015182932882e-01
9.034980203462e-01
9.054374134292e-01
9.073364158956e-01
9.091968087539e-01
9.110194747284e-01
9.128045522913e-01
9.145531516336e-01
9.162660323281e-01
9.179439573034e-01
9.195872903457e-01
9.211976785732e-01
9.227748393023e-01
9.243195052460e-01
9.258328745941e-01
9.273154874719e-01
9.287672395990e-01
9.301894640007e-01
9.315827137876e-01
9.329468385379e-01
9.342833576898e-01
9.355921048414e-01
9.368738001110e-01
9.381290225630e-01
9.393580239602e-01
9.405619749421e-01
9.417404665114e-01
9.428946767320e-01
9.440250074019e-01
9.451315560013e-01
9.462149791326e-01
9.472755332806e-01
9.483142422019e-01
9.493307946799e-01
9.503263675526e-01
9.513006781383e-01
9.522548299031e-01
9.531887552630e-01
9.541030532195e-01
9.549979380894e-01
9.558743585428e-01
9.567320257765e-01
9.575720210096e-01
9.583942500283e-01
9.591991250851e-01
9.599873150362e-01
9.607592349984e-01
9.615149521178e-01
9.622549874045e-01
9.629796048347e-01
9.636894050469e-01
9.643847800100e-01
9.650657906189e-01
9.657329485784e-01
9.663864356792e-01
9.670269918989e-01
9.676544356870e-01
9.682694516327e-01
9.688722354767e-01
9.694630865565e-01
9.700422965456e-01
9.706101490601e-01
9.711669175231e-01
9.724831660515e-01
SCALARS 3-H double 1
LOOKUP_TABLE default
1.994509163545e-04
1.995316684671e-04
1.995316675924e-04
1.994501648805e-04
1.995315931381e-04
1.994501625063e-04
1.995314765071e-04
1.995316765867e-04
1.994501642505e-04
1.994501678979e-04
1.995314720935e-04
1.995315123971e-04
1.995314758794e-04
1.995315848817e-04
1.995316055203e-04
1.995315791538e-04
1.992552921530e-04
1.992757237886e-04
1.994501999580e-04
1.995314557745e-04
1.995315195211e-04
1.995315070557e-04
1.994501912765e-04
1.995314634936e-04
1.995315709102e-04
1.994501908868e-04
1.995315037189e-04
1.995317132518e-04
1.995314765523e-04
1.994502053802e-04
1.995316074271e-04
1.994502108730e-04
1.995318333508e-04
1.995316165717e-04
1.995317184458e-04
1.994502026097e-04
1.995102038024e-04
1.995155111248e-04
1.994502224906e-04
1.994502291347e-04
1.995314723465e-04
1.994502155732e-04
1.994502384915e-04
1.994502207303e-04
1.995315458487e-04
1.995314973293e-04
1.995314729561e-04
1.995314870582e-04
1.995317556685e-04
1.995315121596e-04
1.994502045597e-04
1.994502074535e-04
1.994502212024e-04
1.995315151150e-04
1.994502382710e-04
1.995315979161e-04
1.994502031825e-04
1.995316046497e-04
1.994502066503e-04
1.993599593086e-04
1.995315988737e-04
1.995536469929e-04
1.995314974794e-04
1.994502002825e-04
1.995316106743e-04
1.995315398155e-04
1.995314874447e-04
1.995316199843e-04
1.993493739647e-04
1.995513766104e-04
1.995499290701e-04
1.994502058385e-04
1.995314883293e-04
1.995880095612e-04
1.995314532891e-04
1.995315695950e-04
1.995893875229e-04
1.995896375431e-04
1.995314437151e-04
1.995315406973e-04
1.993149198478e-04
1.994502113270e-04
1.995314531891e-04
1.995314574621e-04
1.995912652247e-04
1.994501875697e-04
1.994501823064e-04
1.994501996060e-04
1.995315779490e-04
1.995918295615e-04
1.995314992168e-04
1.995314513109e-04
1.994501921380e-04
1.994501816228e-04
1.995316076142e-04
1.995315960489e-04
1.995314729089e-04
1.995316004789e-04
1.994501753232e-04
1.995316017710e-04
1.994499886698e-04
SCALARS 4-Inrt double 1
LOOKUP_TABLE default
0.000000000000e+00
0.000000000000e+00
0.000000000000e+00
0.000000000000e+00
0.000000000000e+00
0.000000000000e+00
0.000000000000e+00
0.000000000000e+00
0.000000000000e+00
0.000000000000e+00
0.000000000000e+00
0.000000000000e+00
0.000000000000e+00
0.000000000000e+00
0.000000000000e+00
0.000000000000e+00
0.000000000000e+00
0.000000000000e+00
0.000000000000e+00
0.000000000000e+00
0.000000000000e+00
0.000000000000e+00
0.000000000000e+00
0.000000000000e+00
0.000000000000e+00
0.000000000000e+00
0.000000000000e+00
0.000000000000e+00
0.000000000000e+00
0.000000000000e+00
0.000000000000e+00
0.000000000000e+00
0.000000000000e+00
0.000000000000e+00
0.000000000000e+00
0.000000000000e+00
0.000000000000e+00
0.000000000000e+00
0.000000000000e+00
0.000000000000e+00
0.000000000000e+00
0.000000000000e+00
0.000000000000e+00
0.000000000000e+00
0.000000000000e+00
0.000000000000e+00
0.000000000000e+00
0.000000000000e+00
0.000000000000e+00
0.000000000000e+00
0.000000000000e+00
0.000000000000e+00
0.000000000000e+00
0.000000000000e+00
0.000000000000e+00
0.000000000000e+00
0.000000000000e+00
0.000000000000e+00
0.000000000000e+00
0.000000000000e+00
0.000000000000e+00
0.000000000000e+00
0.000000000000e+00
0.000000000000e+00
0.000000000000e+00
0.000000000000e+00
0.000000000000e+00
0.000000000000e+00
0.000000000000e+00
0.000000000000e+00
0.000000000000e+00
0.000000000000e+00
0.000000000000e+00
0.000000000000e+00
0.000000000000e+00
0.000000000000e+00
0.000000000000e+00
0.000000000000e+00
0.000000000000e+00
0.000000000000e+00
0.000000000000e+00
0.000000000000e+00
0.000000000000e+00
0.000000000000e+00
0.000000000000e+00
0.000000000000e+00
0.000000000000e+00
0.000000000000e+00
0.000000000000e+00
0.000000000000e+00
0.000000000000e+00
0.000000000000e+00
0.000000000000e+00
0.000000000000e+00
0.000000000000e+00
0.000000000000e+00
0.000000000000e+00
0.000000000000e+00
0.000000000000e+00
0.000000000000e+00
0.000000000000e+00
SCALARS 5-O double 1
LOOKUP_TABLE default
1.009972554693e-02
9.474957320388e-03
8.808404410202e-03
8.180612683211e-03
7.590208553778e-03
7.035554413762e-03
6.515360384526e-03
6.028077937538e-03
5.572300511174e-03
5.146723169482e-03
4.749988803256e-03
4.380685332333e-03
4.037551067250e-03
3.719315366462e-03
3.424742170784e-03
3.152631299320e-03
2.901682568402e-03
2.671063286613e-03
2.459621667564e-03
2.266202128077e-03
2.089826463766e-03
1.929596799049e-03
1.784582050584e-03
1.654062303758e-03
1.537122410717e-03
1.433015091562e-03
1.341159394737e-03
1.260768208669e-03
1.191251316356e-03
1.131963473030e-03
1.082438385965e-03
1.041928167478e-03
1.010017060594e-03
9.861157224189e-04
9.700672473327e-04
9.617955805623e-04
9.587408895402e-04
9.528394224062e-04
9.528730749393e-04
9.584552857521e-04
9.608888207090e-04
9.685294128487e-04
9.836791459751e-04
1.005706573246e-03
1.034120090229e-03
1.068346552325e-03
1.108067762250e-03
1.153194650565e-03
1.203701214414e-03
1.259529301306e-03
1.320639190745e-03
1.387314634676e-03
1.459752872713e-03
1.538180362831e-03
1.622621679006e-03
1.713366794210e-03
1.810371839035e-03
1.913907767058e-03
2.023904835249e-03
2.140512484620e-03
2.263922118756e-03
2.393965543733e-03
2.530710852281e-03
2.674145982932e-03
2.824354338711e-03
2.981165559143e-03
3.144541623423e-03
3.314381063265e-03
3.490458395791e-03
3.672892110052e-03
3.861193340581e-03
4.055183576533e-03
4.254737661863e-03
4.459452812056e-03
4.668952190637e-03
4.882947936481e-03
5.101037723627e-03
5.322727040470e-03
5.547539858354e-03
5.775033409327e-03
6.004540954627e-03
6.235786265820e-03
6.467982373717e-03
6.700514648798e-03
6.932835056056e-03
7.164179890551e-03
7.394078992124e-03
7.621817290395e-03
7.846792754294e-03
8.068317279629e-03
8.285714680740e-03
8.498465031294e-03
8.705911990557e-03
8.907576073188e-03
9.102927835809e-03
9.291395022091e-03
9.472565665712e-03
9.646031982568e-03
9.811392872676e-03
9.968460390111e-03
1.009972507400e-02
SCALARS 6-Zz double 1
LOOKUP_TABLE default
0.000000000000e+00
0.000000000000e+00
0.000000000000e+00
0.000000000000e+00
0.000000000000e+00
0.000000000000e+00
0.000000000000e+00
0.000000000000e+00
0.000000000000e+00
0.000000000000e+00
0.000000000000e+00
0.000000000000e+00
0.000000000000e+00
0.000000000000e+00
0.000000000000e+00
0.000000000000e+00
-2.178166569542e-19
0.000000000000e+00
0.000000000000e+00
0.000000000000e+00
0.000000000000e+00
0.000000000000e+00
0.000000000000e+00
0.000000000000e+00
0.000000000000e+00
0.000000000000e+00
0.000000000000e+00
0.000000000000e+00
0.000000000000e+00
0.000000000000e+00
0.000000000000e+00
0.000000000000e+00
0.000000000000e+00
0.000000000000e+00
0.000000000000e+00
0.000000000000e+00
-1.812365532278e-20
-5.473170118156e-18
0.000000000000e+00
0.000000000000e+00
0.000000000000e+00
0.000000000000e+00
0.000000000000e+00
0.000000000000e+00
0.000000000000e+00
0.000000000000e+00
0.000000000000e+00
0.000000000000e+00
0.000000000000e+00
0.000000000000e+00
0.000000000000e+00
0.000000000000e+00
0.000000000000e+00
0.000000000000e+00
0.000000000000e+00
0.000000000000e+00
0.000000000000e+00
0.000000000000e+00
0.000000000000e+00
1.811630837298e-20
0.000000000000e+00
0.000000000000e+00
0.000000000000e+00
0.000000000000e+00
0.000000000000e+00
0.000000000000e+00
0.000000000000e+00
0.000000000000e+00
-1.157590537854e-17
0.000000000000e+00
0.000000000000e+00
0.000000000000e+00
0.000000000000e+00
-3.586847684239e-18
0.000000000000e+00
0.000000000000e+00
-3.967268438311e-18
4.528822618094e-18
0.000000000000e+00
0.000000000000e+00
-5.434573305867e-18
0.000000000000e+00
0.000000000000e+00
0.000000000000e+00
0.000000000000e+00
0.000000000000e+00
0.000000000000e+00
0.000000000000e+00
0.000000000000e+00
0.000000000000e+00
0.000000000000e+00
0.000000000000e+00
0.000000000000e+00
0.000000000000e+00
0.000000000000e+00
0.000000000000e+00
0.000000000000e+00
0.000000000000e+00
0.000000000000e+00
0.000000000000e+00
0.000000000000e+00
SCALARS Ael double 1
LOOKUP_TABLE default
 1.205605462665e-03
 1.225074921916e-03
 1.294542801955e-03
 1.368210853702e-03
 1.446336714131e-03
 1.529196132996e-03
 1.617080477178e-03
 1.710304339109e-03
 1.809191401725e-03
 1.914094739728e-03
 2.025387397813e-03
 2.143463053970e-03
 2.268742928482e-03
 2.401672304970e-03
 2.542728005459e-03
 2.692410597924e-03
 2.851258977008e-03
 3.019840140090e-03
 3.198753282951e-03
 3.388651934660e-03
 3.590212488853e-03
 3.804158793111e-03
 4.031261080270e-03
 4.272337844873e-03
 4.528260288371e-03
 4.799955249986e-03
 5.088401468387e-03
 5.394645176941e-03
 5.719793122844e-03
 6.065027080314e-03
 6.431593020672e-03
 6.820836117862e-03
 7.234157565718e-03
 7.673064164093e-03
 8.139155621049e-03
 8.634136846125e-03
 9.159802831480e-03
 9.718073574902e-03
 1.031099268645e-02
 1.094072530181e-02
 1.160957421385e-02
 1.231999098361e-02
 1.307457208190e-02
 1.387608594806e-02
 1.472747232749e-02
 1.563185577026e-02
 1.659255420863e-02
 1.761310475920e-02
 1.869725592353e-02
 1.984900097790e-02
 2.107256823849e-02
 2.237247126779e-02
 2.375351387889e-02
 2.522075896297e-02
 2.677964491191e-02
 2.843592720627e-02
 3.019570382882e-02
 3.206548128020e-02
 3.405217029159e-02
 3.616314619554e-02
 3.840618129263e-02
 4.078957774532e-02
 4.332222080922e-02
 4.601343592937e-02
 4.887321409995e-02
 5.191216811260e-02
 5.514154814297e-02
 5.857335945729e-02
 6.222034222779e-02
 6.609601584708e-02
 7.021479239241e-02
 7.459199516830e-02
 7.924386879340e-02
 8.418774071980e-02
 8.944193907628e-02
 9.502607077023e-02
 1.009608898042e-01
 1.072685079336e-01
 1.139724292873e-01
 1.210975607903e-01
 1.286704442667e-01
 1.367194289279e-01
 1.452744170221e-01
 1.543672522498e-01
 1.640319285608e-01
 1.743044640251e-01
 1.852231934243e-01
 1.968288280860e-01
 2.091646717479e-01
 2.222767897234e-01
 2.362141675851e-01
 2.510288363857e-01
 2.667759679952e-01
 2.835146597824e-01
 3.013071824556e-01
 3.202201221000e-01
 3.403242076800e-01
 3.616945056405e-01
 3.844109596857e-01
 4.085584692531e-01
 4.370352119948e-01
SCALARS Bel double 1
LOOKUP_TABLE default
 7.943945779757e-04
 8.942859012003e-04
 9.515941791210e-04
 1.012584073574e-03
 1.077493829871e-03
 1.146574914963e-03
 1.220096495738e-03
 1.298339938719e-03
 1.381615186697e-03
 1.470242840953e-03
 1.564566117381e-03
 1.664952877986e-03
 1.771791587287e-03
 1.885497838017e-03
 2.006510115739e-03
 2.135301036028e-03
 2.272366426577e-03
 2.418239445801e-03
 2.573490628441e-03
 2.738710154093e-03
 2.914543998125e-03
 3.101674320894e-03
 3.300825830241e-03
 3.512769533966e-03
 3.738324279947e-03
 3.978360189433e-03
 4.233809162562e-03
 4.505656478634e-03
 4.794955428060e-03
 5.102820934721e-03
 5.430449036323e-03
 5.779091077201e-03
 6.150106671559e-03
 6.544924517118e-03
 6.965066151116e-03
 7.412145415339e-03
 7.887896077708e-03
 8.394150203563e-03
 8.932853684949e-03
 9.506083358391e-03
 1.011604685559e-02
 1.076508848729e-02
 1.145571117179e-02
 1.219056859086e-02
 1.297248628330e-02
 1.380446987079e-02
 1.468971958026e-02
 1.563162900448e-02
 1.663381901925e-02
 1.770013216428e-02
 1.883467190820e-02
 2.004178384088e-02
 2.132608405637e-02
 2.269252582647e-02
 2.414632092654e-02
 2.569303818637e-02
 2.733862075651e-02
 2.908936547510e-02
 3.095197540995e-02
 3.293355079931e-02
 3.504171124413e-02
 3.728452082844e-02
 3.967049657442e-02
 4.220881693877e-02
 4.490916619875e-02
 4.778185236542e-02
 5.083787045260e-02
 5.408886862179e-02
 5.754725752317e-02
 6.122626078616e-02
 6.513990236027e-02
 6.930309516099e-02
 7.373174495759e-02
 7.844271004583e-02
 8.345401226710e-02
 8.878469593223e-02
 9.445510520186e-02
 1.004868283531e-01
 1.069028278918e-01
 1.137276052930e-01
 1.209871551496e-01
 1.287089907307e-01
 1.369226089169e-01
 1.456593257030e-01
 1.549523054955e-01
 1.648369404124e-01
 1.753508268912e-01
 1.865339920991e-01
 1.984289824362e-01
 2.110810180077e-01
 2.245381780713e-01
 2.388516417339e-01
 2.540759817008e-01
 2.702687933152e-01
 2.874918866348e-01
 3.058106121629e-01
 3.252945307325e-01
 3.460177477836e-01
 3.680589359484e-01
 3.915018545482e-01
 4.136276629199e-01
SCALARS H double 1
LOOKUP_TABLE default
 1.106904901085e+02
 8.825220076008e+01
 9.346241822728e+01
 9.899640515776e+01
 1.048737521230e+02
 1.111164193017e+02
 1.177468543273e+02
 1.247919229728e+02
 1.322738974964e+02
 1.402219692210e+02
 1.486659275676e+02
 1.576364536234e+02
 1.671655862798e+02
 1.772901602350e+02
 1.880475986084e+02
 1.994760145156e+02
 2.116194339844e+02
 2.245231279788e+02
 2.382311846315e+02
 2.528013305625e+02
 2.682830244563e+02
 2.847358117855e+02
 3.022166769940e+02
 3.207947599312e+02
 3.405355909060e+02
 3.615186182223e+02
 3.838174156436e+02
 4.075190784522e+02
 4.327065606219e+02
 4.594762775754e+02
 4.879269200074e+02
 5.181727202170e+02
 5.503152138332e+02
 5.844773327070e+02
 6.207863793572e+02
 6.593888952235e+02
 7.004193897030e+02
 7.440253641729e+02
 7.903824003365e+02
 8.396622775895e+02
 8.920404571751e+02
 9.477253856449e+02
 1.006920163335e+03
 1.069842594596e+03
 1.136732003716e+03
 1.207839057419e+03
 1.283426342298e+03
 1.363780694042e+03
 1.449214448518e+03
 1.540038423223e+03
 1.636577124369e+03
 1.739214157944e+03
 1.848354534546e+03
 1.964345251876e+03
 2.087679369132e+03
 2.218824075068e+03
 2.358218741403e+03
 2.506426294393e+03
 2.663976353486e+03
 2.831515531520e+03
 3.009609617022e+03
 3.198911359479e+03
 3.400275280249e+03
 3.614303704155e+03
 3.841870948464e+03
 4.083849039917e+03
 4.341077753546e+03
 4.614580937188e+03
 4.905371727646e+03
 5.214548288809e+03
 5.543231350771e+03
 5.892775497590e+03
 6.264357121175e+03
 6.659526627831e+03
 7.079567767905e+03
 7.526220116247e+03
 8.001063356909e+03
 8.506025345675e+03
 9.042922292068e+03
 9.613752763263e+03
 1.022054947669e+04
 1.086593786258e+04
 1.155216082613e+04
 1.228167780902e+04
 1.305738444650e+04
 1.388216556086e+04
 1.475912504519e+04
 1.569157194802e+04
 1.668302046885e+04
 1.773713570224e+04
 1.885807361897e+04
 2.004993837322e+04
 2.131694855824e+04
 2.266449193415e+04
 2.409699860906e+04
 2.562014678741e+04
 2.723985784185e+04
 2.896196709104e+04
 3.079317303094e+04
 3.274025637907e+04
 4.708014431404e+04
SCALARS Inrt double 1
LOOKUP_TABLE default
 9.989999999797e-01
 9.989403195872e-01
 9.988769315068e-01
 9.988096025321e-01
 9.987380847221e-01
 9.986621144684e-01
 9.985814115041e-01
 9.984956778498e-01
 9.984045966925e-01
 9.983078311943e-01
 9.982050232248e-01
 9.980957920141e-01
 9.979797327198e-01
 9.978564149036e-01
 9.977253809119e-01
 9.975861441527e-01
 9.974381872650e-01
 9.972809601707e-01
 9.971138780048e-01
 9.969363189128e-01
 9.967476217101e-01
 9.965470833929e-01
 9.963339564908e-01
 9.961074462526e-01
 9.958667076536e-01
 9.956108422137e-01
 9.953388946132e-01
 9.950498490960e-01
 9.947426256433e-01
 9.944160759058e-01
 9.940689788792e-01
 9.937000363042e-01
 9.933078677769e-01
 9.928910055484e-01
 9.924478889961e-01
 9.919768587443e-01
 9.914761504129e-01
 9.909438879703e-01
 9.903780766655e-01
 9.897765955124e-01
 9.891371892986e-01
 9.884574600883e-01
 9.877348581868e-01
 9.869666725337e-01
 9.861500204867e-01
 9.852818369600e-01
 9.843588628740e-01
 9.833776328739e-01
 9.823344622712e-01
 9.812254331577e-01
 9.800463796411e-01
 9.787928721452e-01
 9.774602007164e-01
 9.760433572733e-01
 9.745370167321e-01
 9.729355169377e-01
 9.712328373236e-01
 9.694225762203e-01
 9.674979267283e-01
 9.654516510623e-01
 9.632760532715e-01
 9.609629502328e-01
 9.585036408073e-01
 9.558888730442e-01
 9.531088093078e-01
 9.501529891970e-01
 9.470102901170e-01
 9.436688853540e-01
 9.401161994971e-01
 9.363388610353e-01
 9.323226519553e-01
 9.280524541474e-01
 9.235121924176e-01
 9.186847738924e-01
 9.135520235868e-01
 9.080946158918e-01
 9.022920017262e-01
 8.961223310738e-01
 8.895623706177e-01
 8.825874161578e-01
 8.751711994862e-01
 8.672857893628e-01
 8.589014862233e-01
 8.499867102205e-01
 8.405078821765e-01
 8.304292969976e-01
 8.197129890745e-01
 8.083185891600e-01
 7.962031721855e-01
 7.833210954419e-01
 7.696238265144e-01
 7.550597603232e-01
 7.395740245811e-01
 7.231082729321e-01
 7.056004649933e-01
 6.869846324706e-01
 6.671906304655e-01
 6.461438730355e-01
 6.237650520123e-01
 5.999698380167e-01
 5.746685625425e-01
SCALARS O double 1
LOOKUP_TABLE default
 5.534525505425e+01
 4.412610785477e+01
 4.673121646685e+01
 4.949820980605e+01
 5.243688315831e+01
 5.555821661335e+01
 5.887343398822e+01
 6.239596816996e+01
 6.613695528786e+01
 7.011099100402e+01
 7.433297002939e+01
 7.881823290826e+01
 8.358279908677e+01
 8.864508591484e+01
 9.402380495285e+01
 9.973801275936e+01
 1.058097223492e+02
 1.122615692052e+02
 1.191155973948e+02
 1.264006702291e+02
 1.341415170515e+02
 1.423679105997e+02
 1.511083430972e+02
 1.603973844702e+02
 1.702677998750e+02
 1.807593134657e+02
 1.919087121263e+02
 2.037595435004e+02
 2.163532845777e+02
 2.297381430725e+02
 2.439634643354e+02
 2.590863645192e+02
 2.751576114421e+02
 2.922386710337e+02
 3.103931945595e+02
 3.296944527471e+02
 3.502097002869e+02
 3.720126878206e+02
 3.951912062601e+02
 4.198311453088e+02
 4.460202355272e+02
 4.738627002611e+02
 5.034600897087e+02
 5.349213060544e+02
 5.683660114534e+02
 6.039195392788e+02
 6.417131828399e+02
 6.818903599998e+02
 7.246072387122e+02