# vtk DataFile Version 3.0
Unstructured Grid from OpenGeoSys
ASCII
DATASET UNSTRUCTURED_GRID
FIELD TimesAndCycles 2
TIME 1 1 double
5.000000000000e+03
CYLCE 1 1 long
50
POINTS 101 double
0.000000000000e+00 0.000000000000e+00 0.000000000000e+00
2.000000000000e-05 0.000000000000e+00 0.000000000000e+00
4.000000000000e-05 0.000000000000e+00 0.000000000000e+00
6.000000000000e-05 0.000000000000e+00 0.000000000000e+00
8.000000000000e-05 0.000000000000e+00 0.000000000000e+00
1.000000000000e-04 0.000000000000e+00 0.000000000000e+00
1.200000000000e-04 0.000000000000e+00 0.000000000000e+00
1.400000000000e-04 0.000000000000e+00 0.000000000000e+00
1.600000000000e-04 0.000000000000e+00 0.000000000000e+00
1.800000000000e-04 0.000000000000e+00 0.000000000000e+00
2.000000000000e-04 0.000000000000e+00 0.000000000000e+00
2.200000000000e-04 0.000000000000e+00 0.000000000000e+00
2.400000000000e-04 0.000000000000e+00 0.000000000000e+00
2.600000000000e-04 0.000000000000e+00 0.000000000000e+00
2.800000000000e-04 0.000000000000e+00 0.000000000000e+00
3.000000000000e-04 0.000000000000e+00 0.000000000000e+00
3.200000000000e-04 0.000000000000e+00 0.000000000000e+00
3.400000000000e-04 0.000000000000e+00 0.000000000000e+00
3.600000000000e-04 0.000000000000e+00 0.000000000000e+00
3.800000000000e-04 0.000000000000e+00 0.000000000000e+00
4.000000000000e-04 0.000000000000e+00 0.000000000000e+00
4.200000000000e-04 0.000000000000e+00 0.000000000000e+00
4.400000000000e-04 0.000000000000e+00 0.000000000000e+00
4.600000000000e-04 0.000000000000e+00 0.000000000000e+00
4.800000000000e-04 0.000000000000e+00 0.000000000000e+00
5.000000000000e-04 0.000000000000e+00 0.000000000000e+00
5.200000000000e-04 0.000000000000e+00 0.000000000000e+00
5.400000000000e-04 0.000000000000e+00 0.000000000000e+00
5.600000000000e-04 0.000000000000e+00 0.000000000000e+00
5.800000000000e-04 0.000000000000e+00 0.000000000000e+00
6.000000000000e-04 0.000000000000e+00 0.000000000000e+00
6.200000000000e-04 0.000000000000e+00 0.000000000000e+00
6.400000000000e-04 0.000000000000e+00 0.000000000000e+00
6.600000000000e-04 0.000000000000e+00 0.000000000000e+00
6.800000000000e-04 0.000000000000e+00 0.000000000000e+00
7.000000000000e-04 0.000000000000e+00 0.000000000000e+00
7.200000000000e-04 0.000000000000e+00 0.000000000000e+00
7.400000000000e-04 0.000000000000e+00 0.000000000000e+00
7.600000000000e-04 0.000000000000e+00 0.000000000000e+00
7.800000000000e-04 0.000000000000e+00 0.000000000000e+00
8.000000000000e-04 0.000000000000e+00 0.000000000000e+00
8.200000000000e-04 0.000000000000e+00 0.000000000000e+00
8.400000000000e-04 0.000000000000e+00 0.000000000000e+00
8.600000000000e-04 0.000000000000e+00 0.000000000000e+00
8.800000000000e-04 0.000000000000e+00 0.000000000000e+00
9.000000000000e-04 0.000000000000e+00 0.000000000000e+00
9.200000000000e-04 0.000000000000e+00 0.000000000000e+00
9.400000000000e-04 0.000000000000e+00 0.000000000000e+00
9.600000000000e-04 0.000000000000e+00 0.000000000000e+00
9.800000000000e-04 0.000000000000e+00 0.000000000000e+00
1.000000000000e-03 0.000000000000e+00 0.000000000000e+00
1.020000000000e-03 0.000000000000e+00 0.000000000000e+00
1.040000000000e-03 0.000000000000e+00 0.000000000000e+00
1.060000000000e-03 0.000000000000e+00 0.000000000000e+00
1.080000000000e-03 0.000000000000e+00 0.000000000000e+00
1.100000000000e-03 0.000000000000e+00 0.000000000000e+00
1.120000000000e-03 0.000000000000e+00 0.000000000000e+00
1.140000000000e-03 0.000000000000e+00 0.000000000000e+00
1.160000000000e-03 0.000000000000e+00 0.000000000000e+00
1.180000000000e-03 0.000000000000e+00 0.000000000000e+00
1.200000000000e-03 0.000000000000e+00 0.000000000000e+00
1.220000000000e-03 0.000000000000e+00 0.000000000000e+00
1.240000000000e-03 0.000000000000e+00 0.000000000000e+00
1.260000000000e-03 0.000000000000e+00 0.000000000000e+00
1.280000000000e-03 0.000000000000e+00 0.000000000000e+00
1.300000000000e-03 0.000000000000e+00 0.000000000000e+00
1.320000000000e-03 0.000000000000e+00 0.000000000000e+00
1.340000000000e-03 0.000000000000e+00 0.000000000000e+00
1.360000000000e-03 0.000000000000e+00 0.000000000000e+00
1.380000000000e-03 0.000000000000e+00 0.000000000000e+00
1.400000000000e-03 0.000000000000e+00 0.000000000000e+00
1.420000000000e-03 0.000000000000e+00 0.000000000000e+00
1.440000000000e-03 0.000000000000e+00 0.000000000000e+00
1.460000000000e-03 0.000000000000e+00 0.000000000000e+00
1.480000000000e-03 0.000000000000e+00 0.000000000000e+00
1.500000000000e-03 0.000000000000e+00 0.000000000000e+00
1.520000000000e-03 0.000000000000e+00 0.000000000000e+00
1.540000000000e-03 0.000000000000e+00 0.000000000000e+00
1.560000000000e-03 0.000000000000e+00 0.000000000000e+00
1.580000000000e-03 0.000000000000e+00 0.000000000000e+00
1.600000000000e-03 0.000000000000e+00 0.000000000000e+00
1.620000000000e-03 0.000000000000e+00 0.000000000000e+00
1.640000000000e-03 0.000000000000e+00 0.000000000000e+00
1.660000000000e-03 0.000000000000e+00 0.000000000000e+00
1.680000000000e-03 0.000000000000e+00 0.000000000000e+00
1.700000000000e-03 0.000000000000e+00 0.000000000000e+00
1.720000000000e-03 0.000000000000e+00 0.000000000000e+00
1.740000000000e-03 0.000000000000e+00 0.000000000000e+00
1.760000000000e-03 0.000000000000e+00 0.000000000000e+00
1.780000000000e-03 0.000000000000e+00 0.000000000000e+00
1.800000000000e-03 0.000000000000e+00 0.000000000000e+00
1.820000000000e-03 0.000000000000e+00 0.000000000000e+00
1.840000000000e-03 0.000000000000e+00 0.000000000000e+00
1.860000000000e-03 0.000000000000e+00 0.000000000000e+00
1.880000000000e-03 0.000000000000e+00 0.000000000000e+00
1.900000000000e-03 0.000000000000e+00 0.000000000000e+00
1.920000000000e-03 0.000000000000e+00 0.000000000000e+00
1.940000000000e-03 0.000000000000e+00 0.000000000000e+00
1.960000000000e-03 0.000000000000e+00 0.000000000000e+00
1.980000000000e-03 0.000000000000e+00 0.000000000000e+00
2.000000000000e-03 0.000000000000e+00 0.000000000000e+00
CELLS 100 300
2 0 1
2 1 2
2 2 3
2 3 4
2 4 5
2 5 6
2 6 7
2 7 8
2 8 9
2 9 10
2 10 11
2 11 12
2 12 13
2 13 14
2 14 15
2 15 16
2 16 17
2 17 18
2 18 19
2 19 20
2 20 21
2 21 22
2 22 23
2 23 24
2 24 25
2 25 26
2 26 27
2 27 28
2 28 29
2 29 30
2 30 31
2 31 32
2 32 33
2 33 34
2 34 35
2 35 36
2 36 37
2 37 38
2 38 39
2 39 40
2 40 41
2 41 42
2 42 43
2 43 44
2 44 45
2 45 46
2 46 47
2 47 48
2 48 49
2 49 50
2 50 51
2 51 52
2 52 53
2 53 54
2 54 55
2 55 56
2 56 57
2 57 58
2 58 59
2 59 60
2 60 61
2 61 62
2 62 63
2 63 64
2 64 65
2 65 66
2 66 67
2 67 68
2 68 69
2 69 70
2 70 71
2 71 72
2 72 73
2 73 74
2 74 75
2 75 76
2 76 77
2 77 78
2 78 79
2 79 80
2 80 81
2 81 82
2 82 83
2 83 84
2 84 85
2 85 86
2 86 87
2 87 88
2 88 89
2 89 90
2 90 91
2 91 92
2 92 93
2 93 94
2 94 95
2 95 96
2 96 97
2 97 98
2 98 99
2 99 100

CELL_TYPES 100
3
3
3
3
3
3
3
3
3
3
3
3
3
3
3
3
3
3
3
3
3
3
3
3
3
3
3
3
3
3
3
3
3
3
3
3
3
3
3
3
3
3
3
3
3
3
3
3
3
3
3
3
3
3
3
3
3
3
3
3
3
3
3
3
3
3
3
3
3
3
3
3
3
3
3
3
3
3
3
3
3
3
3
3
3
3
3
3
3
3
3
3
3
3
3
3
3
3
3
3

POINT_DATA 101
SCALARS HEAD double 1
LOOKUP_TABLE default
1.000000000000e+01
1.000000000000e+01
1.000000000000e+01
1.000000000000e+01
1.000000000000e+01
1.000000000000e+01
1.000000000000e+01
1.000000000000e+01
1.000000000000e+01
1.000000000000e+01
1.000000000000e+01
1.000000000000e+01
1.000000000000e+01
1.000000000000e+01
1.000000000000e+01
1.000000000000e+01
1.000000000000e+01
1.000000000000e+01
1.000000000000e+01
1.000000000000e+01
1.000000000000e+01
1.000000000000e+01
1.000000000000e+01
1.000000000000e+01
1.000000000000e+01
1.000000000000e+01
1.000000000000e+01
1.000000000000e+01
1.000000000000e+01
1.000000000000e+01
1.000000000000e+01
1.000000000000e+01
1.000000000000e+01
1.000000000000e+01
1.000000000000e+01
1.000000000000e+01
1.000000000000e+01
1.000000000000e+01
1.000000000000e+01
1.000000000000e+01
1.000000000000e+01
1.000000000000e+01
1.000000000000e+01
1.000000000000e+01
1.000000000000e+01
1.000000000000e+01
1.000000000000e+01
1.000000000000e+01
1.000000000000e+01
1.000000000000e+01
1.000000000000e+01
1.000000000000e+01
1.000000000000e+01
1.000000000000e+01
1.000000000000e+01
1.000000000000e+01
1.000000000000e+01
1.000000000000e+01
1.000000000000e+01
1.000000000000e+01
1.000000000000e+01
1.000000000000e+01
1.000000000000e+01
1.000000000000e+01
1.000000000000e+01
1.000000000000e+01
1.000000000000e+01
1.000000000000e+01
1.000000000000e+01
1.000000000000e+01
1.000000000000e+01
1.000000000000e+01
1.000000000000e+01
1.000000000000e+01
1.000000000000e+01
1.000000000000e+01
1.000000000000e+01
1.000000000000e+01
1.000000000000e+01
1.000000000000e+01
1.000000000000e+01
1.000000000000e+01
1.000000000000e+01
1.000000000000e+01
1.000000000000e+01
1.000000000000e+01
1.000000000000e+01
1.000000000000e+01
1.000000000000e+01
1.000000000000e+01
1.000000000000e+01
1.000000000000e+01
1.000000000000e+01
1.000000000000e+01
1.000000000000e+01
1.000000000000e+01
1.000000000000e+01
1.000000000000e+01
1.000000000000e+01
1.000000000000e+01
1.000000000000e+01
SCALARS 1-Ael double 1
LOOKUP_TABLE default
1.299263960982e+00
1.303186572897e+00
1.297150436000e+00
1.291226236324e+00
1.285412897492e+00
1.279709258030e+00
1.274114089824e+00
1.268626147218e+00
1.263244105254e+00
1.257966544463e+00
1.252792059503e+00
1.247719191155e+00
1.242746456327e+00
1.237872348774e+00
1.233095322033e+00
1.228413801887e+00
1.223826230377e+00
1.219331049947e+00
1.214926658813e+00
1.210611490268e+00
1.206383944030e+00
1.202242467721e+00
1.198185491780e+00
1.194211428685e+00
1.190318751024e+00
1.186505871102e+00
1.182771270917e+00
1.179113444058e+00
1.175530905955e+00
1.172022192372e+00
1.168585806683e+00
1.165220345567e+00
1.161924339747e+00
1.158696342091e+00
1.155534997204e+00
1.152438955305e+00
1.149406894280e+00
1.146437462611e+00
1.143529351489e+00
1.140681286342e+00
1.137892018364e+00
1.135160326429e+00
1.132485010088e+00
1.129864866527e+00
1.127298726747e+00
1.124785475875e+00
1.122323970178e+00
1.119913119751e+00
1.117551862833e+00
1.115239118158e+00
1.112973843661e+00
1.110755055123e+00
1.108581778265e+00
1.106453021266e+00
1.104367825126e+00
1.102325281561e+00
1.100324482209e+00
1.098364535229e+00
1.096444589170e+00
1.094563768713e+00
1.092721221152e+00
1.090916129240e+00
1.089147704749e+00
1.087415185015e+00
1.085717822357e+00
1.084054871216e+00
1.082425572280e+00
1.080829181890e+00
1.079265013032e+00
1.077732409491e+00
1.076230688124e+00
1.074759204010e+00
1.073317324083e+00
1.071904423414e+00
1.070519887048e+00
1.069163106226e+00
1.067833504358e+00
1.066530498299e+00
1.065253542058e+00
1.064002095199e+00
1.062775596408e+00
1.061573526539e+00
1.060395407009e+00
1.059240725414e+00
1.058108978269e+00
1.056999693293e+00
1.055912399316e+00
1.054846640487e+00
1.053801974941e+00
1.052777959701e+00
1.051774164991e+00
1.050790178771e+00
1.049825585338e+00
1.048879983620e+00
1.047952987124e+00
1.047044206165e+00
1.046153268937e+00
1.045279810158e+00
1.044423470910e+00
1.043583901499e+00
1.041794244587e+00
SCALARS 2-Bel double 1
LOOKUP_TABLE default
7.007360390180e-01
6.968134254399e-01
7.028495598043e-01
7.087737570837e-01
7.145870936539e-01
7.202907309862e-01
7.258858971927e-01
7.313738379252e-01
7.367558781412e-01
7.420334373036e-01
7.472079207532e-01
7.522807877061e-01
7.572535212500e-01
7.621276276254e-01
7.669046532948e-01
7.715861724709e-01
7.761737431066e-01
7.806689227568e-01
7.850733132014e-01
7.893884811441e-01
7.936160268622e-01
7.977575027315e-01
8.018144783091e-01
8.057885411137e-01
8.096812185532e-01
8.134940983204e-01
8.172286984130e-01
8.208865252394e-01
8.244690633653e-01
8.279777770255e-01
8.314141628420e-01
8.347796241320e-01
8.380756301701e-01
8.413036280867e-01
8.444649732719e-01
8.475610155062e-01
8.505930768994e-01
8.535625089683e-01
8.564706205182e-01
8.593186861197e-01
8.621079545767e-01
8.648396470123e-01
8.675149638725e-01
8.701351079721e-01
8.727012483052e-01
8.752144997446e-01
8.776760060221e-01
8.800868570387e-01
8.824481145554e-01
8.847608598365e-01
8.870261349457e-01
8.892449241000e-01
8.914182015772e-01
8.935469591977e-01
8.956321559591e-01
8.976747001445e-01
8.996755001156e-01
9.016354477123e-01
9.035553943838e-01
9.054362154494e-01
9.072787636131e-01
9.090838561209e-01
9.108522812012e-01
9.125848015171e-01
9.142821647488e-01
9.159451164549e-01
9.175744159456e-01
9.191708068811e-01
9.207349762737e-01
9.222675803394e-01
9.237693022191e-01
9.252407868350e-01
9.266826672519e-01
9.280955683991e-01
9.294801052302e-01
9.308368865056e-01
9.321664888152e-01
9.334694953022e-01
9.347464519586e-01
9.359978992204e-01
9.372243984023e-01
9.384264686483e-01
9.396045885428e-01
9.407592704899e-01
9.418910179737e-01
9.430003032765e-01
9.440875975674e-01
9.451533566980e-01
9.461980225336e-01
9.472220380500e-01
9.482258330254e-01
9.492098194991e-01
9.501744131750e-01
9.511200151228e-01
9.520470118388e-01
9.529557930060e-01
9.538467304328e-01
9.547201893986e-01
9.555765288237e-01
9.564160984026e-01
9.582057554134e-01
SCALARS 3-H double 1
LOOKUP_TABLE default
1.994509163545e-04
1.994501089518e-04
1.995315040171e-04
1.994501310766e-04
1.995317024285e-04
1.994501087112e-04
1.995314698260e-04
1.995316290173e-04
1.994501520090e-04
1.995314609914e-04
1.994501261367e-04
1.995317048929e-04
1.994501454746e-04
1.995317028197e-04
1.995314286879e-04
1.995316824809e-04
1.994501356256e-04
1.994501466420e-04
1.994501577517e-04
1.994501656992e-04
1.994501235422e-04
1.995315140448e-04
1.995315046321e-04
1.994501573283e-04
1.995316328738e-04
1.994501694662e-04
1.995316616248e-04
1.995316276173e-04
1.995316654794e-04
1.994501824688e-04
1.994501777886e-04
1.995315784580e-04
1.994501507402e-04
1.995316423234e-04
1.995315635917e-04
1.995316316596e-04
1.995314672398e-04
1.994501704207e-04
1.994501556719e-04
1.995316433537e-04
1.994501861001e-04
1.995314455190e-04
1.995314748813e-04
1.994501656997e-04
1.995314450581e-04
1.994501738888e-04
1.995314959427e-04
1.995315389948e-04
1.994501708648e-04
1.995315368001e-04
1.995315801493e-04
1.994501813321e-04
1.995315589073e-04
1.994501525335e-04
1.995316381611e-04
1.994501547430e-04
1.995315892762e-04
1.994501492525e-04
1.994501771771e-04
1.995316266527e-04
1.994501813404e-04
1.995314921728e-04
1.995315481902e-04
1.994501560681e-04
1.995315434963e-04
1.995315965794e-04
1.995316096243e-04
1.994501673262e-04
1.995315486383e-04
1.995315254450e-04
1.995314932749e-04
1.994501625370e-04
1.994501531277e-04
1.995315887493e-04
1.995314640353e-04
1.994501973059e-04
1.994501880661e-04
1.994501858677e-04
1.995316166999e-04
1.994501765238e-04
1.994501521996e-04
1.995315800378e-04
1.994501627738e-04
1.994501745929e-04
1.994501573487e-04
1.994501639833e-04
1.994501502640e-04
1.994501515143e-04
1.995315924881e-04
1.995315501557e-04
1.994501725491e-04
1.995315762235e-04
1.994501593036e-04
1.994501721736e-04
1.995315036618e-04
1.994501618935e-04
1.995316154149e-04
1.994501578321e-04
1.995315884405e-04
1.994501769292e-04
1.994499886698e-04
SCALARS 4-Inrt double 1
LOOKUP_TABLE default
0.000000000000e+00
0.000000000000e+00
0.000000000000e+00
0.000000000000e+00
0.000000000000e+00
0.000000000000e+00
0.000000000000e+00
0.000000000000e+00
0.000000000000e+00
0.000000000000e+00
0.000000000000e+00
0.000000000000e+00
0.000000000000e+00
0.000000000000e+00
0.000000000000e+00
0.000000000000e+00
0.000000000000e+00
0.000000000000e+00
0.000000000000e+00
0.000000000000e+00
0.000000000000e+00
0.000000000000e+00
0.000000000000e+00
0.000000000000e+00
0.000000000000e+00
0.000000000000e+00
0.000000000000e+00
0.000000000000e+00
0.000000000000e+00
0.000000000000e+00
0.000000000000e+00
0.000000000000e+00
0.000000000000e+00
0.000000000000e+00
0.000000000000e+00
0.000000000000e+00
0.000000000000e+00
0.000000000000e+00
0.000000000000e+00
0.000000000000e+00
0.000000000000e+00
0.000000000000e+00
0.000000000000e+00
0.000000000000e+00
0.000000000000e+00
0.000000000000e+00
0.000000000000e+00
0.000000000000e+00
0.000000000000e+00
0.000000000000e+00
0.000000000000e+00
0.000000000000e+00
0.000000000000e+00
0.000000000000e+00
0.000000000000e+00
0.000000000000e+00
0.000000000000e+00
0.000000000000e+00
0.000000000000e+00
0.000000000000e+00
0.000000000000e+00
0.000000000000e+00
0.000000000000e+00
0.000000000000e+00
0.000000000000e+00
0.000000000000e+00
0.000000000000e+00
0.000000000000e+00
0.000000000000e+00
0.000000000000e+00
0.000000000000e+00
0.000000000000e+00
0.000000000000e+00
0.000000000000e+00
0.000000000000e+00
0.000000000000e+00
0.000000000000e+00
0.000000000000e+00
0.000000000000e+00
0.000000000000e+00
0.000000000000e+00
0.000000000000e+00
0.000000000000e+00
0.000000000000e+00
0.000000000000e+00
0.000000000000e+00
0.000000000000e+00
0.000000000000e+00
0.000000000000e+00
0.000000000000e+00
0.000000000000e+00
0.000000000000e+00
0.000000000000e+00
0.000000000000e+00
0.000000000000e+00
0.000000000000e+00
0.000000000000e+00
0.000000000000e+00
0.000000000000e+00
0.000000000000e+00
0.000000000000e+00
SCALARS 5-O double 1
LOOKUP_TABLE default
1.009972554693e-02
9.981546410114e-03
9.801831114618e-03
9.631813547265e-03
9.471514516931e-03
9.320609290695e-03
9.179081717287e-03
9.046616333555e-03
8.923005489183e-03
8.808151196358e-03
8.701661880366e-03
8.603462715536e-03
8.513146269758e-03
8.430625801895e-03
8.355524403412e-03
8.287625460244e-03
8.226628525502e-03
8.172354986085e-03
8.124503105006e-03
8.082813073849e-03
8.047025982309e-03
8.016926102598e-03
7.992178145855e-03
7.972531109022e-03
7.957860014567e-03
7.947758589643e-03
7.942151147834e-03
7.940681500008e-03
7.943161363387e-03
7.949326267420e-03
7.959039463583e-03
7.972088057088e-03
7.988143131219e-03
8.007166745803e-03
8.028841353750e-03
8.053018675925e-03
8.079515089525e-03
8.108113460938e-03
8.138724005284e-03
8.171181856495e-03
8.205205692889e-03
8.240805208522e-03
8.277711114104e-03
8.315782205661e-03
8.355005046508e-03
8.395086597875e-03
8.436065488655e-03
8.477700776347e-03
8.519878746657e-03
8.562613648326e-03
8.605680650116e-03
8.648981142180e-03
8.692544001697e-03
8.736118517374e-03
8.779784258344e-03
8.823298994488e-03
8.866751097768e-03
8.909907648130e-03
8.952824493089e-03
8.995440410798e-03
9.037575842312e-03
9.079339685540e-03
9.120559637861e-03
9.161188588841e-03
9.201305364261e-03
9.240748091827e-03
9.279521835801e-03
9.317553493377e-03
9.354934643346e-03
9.391515466188e-03
9.427312633068e-03
9.462263667497e-03
9.496430732148e-03
9.529797402339e-03
9.562268131183e-03
9.593831628842e-03
9.624559313533e-03
9.654403354772e-03
9.683398690909e-03
9.711419437798e-03
9.738586707324e-03
9.764900270962e-03
9.790238879947e-03
9.814728209924e-03
9.838332402110e-03
9.861057367699e-03
9.882910471839e-03
9.903900071006e-03
9.924076587171e-03
9.943369271620e-03
9.961789916096e-03
9.979473082975e-03
9.996269473392e-03
1.001231543996e-02
1.002762576646e-02
1.004209404893e-02
1.005589913928e-02
1.006889480561e-02
1.008126101120e-02
1.009285240709e-02
1.009972507400e-02
SCALARS 6-Zz double 1
LOOKUP_TABLE default
0.000000000000e+00
0.000000000000e+00
0.000000000000e+00
0.000000000000e+00
0.000000000000e+00
0.000000000000e+00
0.000000000000e+00
0.000000000000e+00
0.000000000000e+00
0.000000000000e+00
0.000000000000e+00
0.000000000000e+00
0.000000000000e+00
0.000000000000e+00
0.000000000000e+00
0.000000000000e+00
0.000000000000e+00
0.000000000000e+00
0.000000000000e+00
0.000000000000e+00
0.000000000000e+00
0.000000000000e+00
0.000000000000e+00
0.000000000000e+00
0.000000000000e+00
0.000000000000e+00
0.000000000000e+00
0.000000000000e+00
0.000000000000e+00
0.000000000000e+00
0.000000000000e+00
0.000000000000e+00
0.000000000000e+00
0.000000000000e+00
0.000000000000e+00
0.000000000000e+00
0.000000000000e+00
0.000000000000e+00
0.000000000000e+00
0.000000000000e+00
0.000000000000e+00
0.000000000000e+00
0.000000000000e+00
0.000000000000e+00
0.000000000000e+00
0.000000000000e+00
0.000000000000e+00
0.000000000000e+00
0.000000000000e+00
0.000000000000e+00
0.000000000000e+00
0.000000000000e+00
0.000000000000e+00
0.000000000000e+00
0.000000000000e+00
0.000000000000e+00
0.000000000000e+00
0.000000000000e+00
0.000000000000e+00
0.000000000000e+00
0.000000000000e+00
0.000000000000e+00
0.000000000000e+00
0.000000000000e+00
0.000000000000e+00
0.000000000000e+00
0.000000000000e+00
0.000000000000e+00
0.000000000000e+00
0.000000000000e+00
0.000000000000e+00
0.000000000000e+00
0.000000000000e+00
0.000000000000e+00
0.000000000000e+00
0.000000000000e+00
0.000000000000e+00
0.000000000000e+00
0.000000000000e+00
0.000000000000e+00
0.000000000000e+00
0.000000000000e+00
0.000000000000e+00
0.000000000000e+00
0.000000000000e+00
0.000000000000e+00
0.000000000000e+00
0.000000000000e+00
0.000000000000e+00
0.000000000000e+00
0.000000000000e+00
0.000000000000e+00
0.000000000000e+00
0.000000000000e+00
0.000000000000e+00
0.000000000000e+00
0.000000000000e+00
0.000000000000e+00
0.000000000000e+00
0.000000000000e+00
0.000000000000e+00
SCALARS Ael double 1
LOOKUP_TABLE default
 1.299263987383e-03
 1.142041200081e-03
 1.208123521757e-03
 1.278264984855e-03
 1.352717662726e-03
 1.431750487689e-03
 1.515648520772e-03
 1.604717215863e-03
 1.699276085662e-03
 1.799669227741e-03
 1.906261708509e-03
 2.019439269023e-03
 2.139615496830e-03
 2.267225926578e-03
 2.402736760023e-03
 2.546640216537e-03
 2.699465513080e-03
 2.861767651657e-03
 3.034141558757e-03
 3.217219278837e-03
 3.411667928993e-03
 3.618207889691e-03
 3.837587346484e-03
 4.070620202872e-03
 4.318158291893e-03
 4.581109886107e-03
 4.860450219699e-03
 5.157199535469e-03
 5.472461560364e-03
 5.807388307083e-03
 6.163220284682e-03
 6.541276025912e-03
 6.942934165297e-03
 7.369697438617e-03
 7.823134848135e-03
 8.304931993534e-03
 8.816865139694e-03
 9.360827691700e-03
 9.938840848668e-03
 1.055304296768e-02
 1.120571714355e-02
 1.189928038827e-02
 1.263631171065e-02
 1.341953509070e-02
 1.425187622986e-02
 1.513642056035e-02
 1.607644737358e-02
 1.707547246514e-02
 1.813719304961e-02
 1.926556383049e-02
 2.046478632103e-02
 2.173934193057e-02
 2.309395756055e-02
 2.453368315194e-02
 2.606388609766e-02
 2.769028780250e-02
 2.941892422559e-02
 3.125627362143e-02
 3.320917426328e-02
 3.528490165187e-02
 3.749121790244e-02
 3.983635843342e-02
 4.232909537111e-02
 4.497873628966e-02
 4.779518834625e-02
 5.078895662346e-02
 5.397121706103e-02
 5.735387474382e-02
 6.094962051496e-02
 6.477188476576e-02
 6.883492795324e-02
 7.315403018478e-02
 7.774526751635e-02
 8.262591247742e-02
 8.781413116990e-02
 9.332944759882e-02
 9.919244562588e-02
 1.054251169563e-01
 1.120508314234e-01
 1.190943759504e-01
 1.265820874316e-01
 1.345421664993e-01
 1.430043947461e-01
 1.520004144959e-01
 1.615640214284e-01
 1.717310689245e-01
 1.825396534894e-01
 1.940303646271e-01
 2.062462652064e-01
 2.192331705577e-01
 2.330398284427e-01
 2.477180631802e-01
 2.633228601002e-01
 2.799129166088e-01
 2.975503917018e-01
 3.163015285975e-01
 3.362367421645e-01
 3.574308418690e-01
 3.799634309148e-01
 4.039191046858e-01
 4.431078435851e-01
SCALARS Bel double 1
LOOKUP_TABLE default
 7.007360532572e-04
 9.773196250468e-04
 1.038013463508e-03
 1.102529948914e-03
 1.171112890201e-03
 1.244020571763e-03
 1.321528466342e-03
 1.403927079014e-03
 1.491530522807e-03
 1.584668376142e-03
 1.683691833201e-03
 1.788976692933e-03
 1.900919052596e-03
 2.019944253906e-03
 2.146501402704e-03
 2.281071463174e-03
 2.424159940706e-03
 2.576311989099e-03
 2.738102412397e-03
 2.910142874821e-03
 3.093088628294e-03
 3.287625300302e-03
 3.494499645987e-03
 3.714487264207e-03
 3.948426371274e-03
 4.197205655121e-03
 4.461760520388e-03
 4.743102236967e-03
 5.042287115541e-03
 5.360459841536e-03
 5.698821914952e-03
 6.058651321346e-03
 6.441330234262e-03
 6.848291415522e-03
 7.281087108199e-03
 7.741350463966e-03
 8.230833978063e-03
 8.751396308563e-03
 9.305005758496e-03
 9.893765943031e-03
 1.051990419193e-02
 1.118579936508e-02
 1.189397184277e-02
 1.264711976616e-02
 1.344808271805e-02
 1.429990543799e-02
 1.520582679379e-02
 1.616926169930e-02
 1.719388231729e-02
 1.828356976029e-02
 1.944245429990e-02
 2.067491367913e-02
 2.198564090370e-02
 2.337960219563e-02
 2.486208032926e-02
 2.643867821013e-02
 2.811540101238e-02
 2.989857382030e-02
 3.179497215958e-02
 3.381179610023e-02
 3.595667542846e-02
 3.823774097226e-02
 4.066362288305e-02
 4.324351748828e-02
 4.598719290207e-02
 4.890506484441e-02
 5.200820256483e-02
 5.530835440604e-02
 5.881798034708e-02
 6.255039301842e-02
 6.651976798953e-02
 7.074106137276e-02
 7.523034749976e-02
 8.000453958853e-02
 8.508182150697e-02
 9.048132046788e-02
 9.622355077235e-02
 1.023302207472e-01
 1.088244271934e-01
 1.157307915873e-01
 1.230755134510e-01
 1.308862546323e-01
 1.391926326669e-01
 1.480261649257e-01
 1.574202140846e-01
 1.674103369502e-01
 1.780343682361e-01
 1.893324569324e-01
 2.013473903076e-01
 2.141246384497e-01
 2.277125184266e-01
 2.421624160787e-01
 2.575290906511e-01
 2.738705374494e-01
 2.912486782435e-01
 3.097292064034e-01
 3.293819968576e-01
 3.502814120250e-01
 3.725064650382e-01
 3.961412192720e-01
 4.075550313300e-01
SCALARS H double 1
LOOKUP_TABLE default
 1.106904901085e+02
 3.006912758385e+01
 3.168355655720e+01
 3.339705417075e+01
 3.521550869941e+01
 3.714556315521e+01
 3.919397819857e+01
 4.136894002632e+01
 4.367706043831e+01
 4.612720000361e+01
 4.872852353892e+01
 5.148978235287e+01
 5.442185579412e+01
 5.753448954178e+01
 6.083952203424e+01
 6.434798114094e+01
 6.807447708557e+01
 7.203089922974e+01
 7.623232169219e+01
 8.069463747208e+01
 8.543226799735e+01
 9.046652515385e+01
 9.581060389490e+01
 1.014886899401e+02
 1.075191081176e+02
 1.139228065024e+02
 1.207278224013e+02
 1.279541851654e+02
 1.356348510474e+02
 1.437917004469e+02
 1.524579089722e+02
 1.616688327725e+02
 1.714466786013e+02
 1.818399930579e+02
 1.928811073245e+02
 2.046166949463e+02
 2.170852665009e+02
 2.303312670682e+02
 2.444082338634e+02
 2.593653086121e+02
 2.752623605070e+02
 2.921550986931e+02
 3.101103901739e+02
 3.291845797925e+02
 3.494626061186e+02
 3.710137726697e+02
 3.939105706245e+02
 4.182565875819e+02
 4.441253210311e+02
 4.716167418356e+02
 5.008346107837e+02
 5.319038208582e+02
 5.649203054822e+02
 6.000100959924e+02
 6.373058808107e+02
 6.769649913805e+02
 7.191046852753e+02
 7.639157888485e+02
 8.115473948724e+02
 8.621629800245e+02
 9.159674655513e+02
 9.731591999269e+02
 1.033969135625e+03
 1.098620357471e+03
 1.167364498715e+03
 1.240433091617e+03
 1.318080138528e+03
 1.400605732945e+03
 1.488375942044e+03
 1.581695418103e+03
 1.680859628566e+03
 1.786353163945e+03
 1.898444284187e+03
 2.017685534216e+03
 2.144364435006e+03
 2.279109374040e+03
 2.422316292634e+03
 2.574575314175e+03
 2.736496999806e+03
 2.908629623106e+03
 3.091522764648e+03
 3.286109121267e+03
 3.493028787219e+03
 3.712915460068e+03
 3.946722667818e+03
 4.195320096157e+03
 4.459585141069e+03
 4.740615635112e+03
 5.039395318136e+03
 5.357026908429e+03
 5.694756590540e+03
 6.053899529208e+03
 6.435600846025e+03
 6.841592813043e+03
 7.273162446248e+03
 7.732020620201e+03
 8.219949691263e+03
 8.738705739770e+03
 9.290305008588e+03
 9.876788223134e+03
 4.708014431404e+04
SCALARS Inrt double 1
LOOKUP_TABLE default
 9.989999999797e-01
 9.989403195872e-01
 9.988769315068e-01
 9.988096025321e-01
 9.987380847221e-01
 9.986621144684e-01
 9.985814115041e-01
 9.984956778498e-01
 9.984045966925e-01
 9.983078311943e-01
 9.982050232248e-01
 9.980957920141e-01
 9.979797327198e-01
 9.978564149036e-01
 9.977253809119e-01
 9.975861441527e-01
 9.974381872650e-01
 9.972809601707e-01
 9.971138780048e-01
 9.969363189128e-01
 9.967476217101e-01
 9.965470833929e-01
 9.963339564908e-01
 9.961074462526e-01
 9.958667076536e-01
 9.956108422137e-01
 9.953388946132e-01
 9.950498490960e-01
 9.947426256433e-01
 9.944160759058e-01
 9.940689788792e-01
 9.937000363042e-01
 9.933078677769e-01
 9.928910055484e-01
 9.924478889961e-01
 9.919768587443e-01
 9.914761504129e-01
 9.909438879703e-01
 9.903780766655e-01
 9.897765955124e-01
 9.891371892986e-01
 9.884574600883e-01
 9.877348581868e-01
 9.869666725337e-01
 9.861500204867e-01
 9.852818369600e-01
 9.843588628740e-01
 9.833776328739e-01
 9.823344622712e-01
 9.812254331577e-01
 9.800463796411e-01
 9.787928721452e-01
 9.774602007164e-01
 9.760433572733e-01
 9.745370167321e-01
 9.729355169377e-01
 9.712328373236e-01
 9.694225762203e-01
 9.674979267283e-01
 9.654516510623e-01
 9.632760532715e-01
 9.609629502328e-01
 9.585036408073e-01
 9.558888730442e-01
 9.531088093078e-01
 9.501529891970e-01
 9.470102901170e-01
 9.436688853540e-01
 9.401161994971e-01
 9.363388610353e-01
 9.323226519553e-01
 9.280524541474e-01
 9.235121924176e-01
 9.186847738924e-01
 9.135520235868e-01
 9.080946158918e-01
 9.022920017262e-01
 8.961223310738e-01
 8.895623706177e-01
 8.825874161578e-01
 8.751711994862e-01
 8.672857893628e-01
 8.589014862233e-01
 8.499867102205e-01
 8.405078821765e-01
 8.304292969976e-01
 8.197129890745e-01
 8.083185891600e-01
 7.962031721855e-01
 7.833210954419e-01
 7.696238265144e-01
 7.550597603232e-01
 7.395740245811e-01
 7.231082729321e-01
 7.056004649933e-01
 6.869846324706e-01
 6.671906304655e-01
 6.461438730355e-01
 6.237650520123e-01
 5.999698380167e-01
 5.746685625425e-01
SCALARS O double 1
LOOKUP_TABLE default
 5.534525505425e+01
 1.503456647633e+01
 1.584178105568e+01
 1.669852996136e+01
 1.760775733127e+01
 1.857278467195e+01
 1.959699231415e+01
 2.068447335691e+01
 2.183853370071e+01
 2.306360363079e+01
 2.436426555623e+01
 2.574489513209e+01
 2.721093203359e+01
 2.876724910109e+01
 3.041976555479e+01
 3.217399533034e+01
 3.403724354082e+01
 3.601545486806e+01
 3.811616637275e+01
 4.034732455580e+01
 4.271614013250e+01
 4.523326904756e+01
 4.790530877890e+01
 5.074435218838e+01
 5.375956169173e+01
 5.696141132839e+01
 6.036391975420e+01
 6.397710164649e+01
 6.781743513463e+01
 7.189586042042e+01
 7.622896531101e+01
 8.083442788414e+01
 8.572335151889e+01
 9.092000951907e+01
 9.644056747886e+01
 1.023083621751e+02
 1.085426489002e+02
 1.151656501984e+02
 1.222041346821e+02
 1.296826732187e+02
 1.376312004100e+02
 1.460775708339e+02
 1.550552179983e+02
 1.645923143302e+02
 1.747313291221e+02
 1.855069141393e+02
 1.969553149784e+02
 2.091283254479e+02
 2.220626942999e+02
 2.358084069753e+02